/*--------------------------------*- C++ -*----------------------------------*\
  =========                 |
  \\      /  F ield         | OpenFOAM: The Open Source CFD Toolbox
   \\    /   O peration     | Website:  https://openfoam.org
    \\  /    A nd           | Version:  12
     \\/     M anipulation  |
\*---------------------------------------------------------------------------*/
FoamFile
{
    format      ascii;
    class       volScalarField;
    location    "0";
    object      nuTilda;
}
// * * * * * * * * * * * * * * * * * * * * * * * * * * * * * * * * * * * * * //

#include "initialConditions"

dimensions      [0 2 -1 0 0 0 0];

internalField   uniform $waveNumber;

boundaryField
{
    inlet
    {
        type            fixedValue;
        value           uniform $waveNumber;
    }
    outlet
    {
        type            zeroGradient;
    }
    lower
    {
        type            inletOutlet;
        inletValue      uniform 1e-6;
        value           uniform 1e-6;
    }
    aircraftModel
    {
        type            fixedValue;
        value           uniform 0;
    }
    upper
    {
        type            inletOutlet;
        inletValue      uniform 1e-6;
        value           uniform 1e-6;
    }
    "(front|back)"
    {
        type            inletOutlet;
        inletValue      uniform 1e-6;
        value           uniform 1e-6;
    }
    "proc.*"
    {
        type            processor;
    }
}
