/*--------------------------------*- C++ -*----------------------------------*\
  =========                 |
  \\      /  F ield         | OpenFOAM: The Open Source CFD Toolbox
   \\    /   O peration     | Website:  https://openfoam.org
    \\  /    A nd           | Version:  12
     \\/     M anipulation  |
\*---------------------------------------------------------------------------*/
FoamFile
{
    format      ascii;
    class       volScalarField;
    location    "0.3";
    object      k;
}
// * * * * * * * * * * * * * * * * * * * * * * * * * * * * * * * * * * * * * //

dimensions      [0 2 -2 0 0 0 0];

internalField   nonuniform List<scalar> 
110452
(
0.02615814905
0.02286292012
0.02315329912
0.03053967057
0.02279680848
0.02272592985
0.02302485923
0.02308443963
0.02928166543
0.02748458209
0.02276556867
0.0227057007
0.02296540111
0.02263003518
0.0229787862
0.0229840617
0.02263133841
0.02593643672
0.0356724301
0.02339150113
0.02267834844
0.02272033137
0.02288919656
0.02262499763
0.02292734761
0.0229269061
0.02261133744
0.02289826608
0.02303992857
0.02294003024
0.02254922547
0.02571481707
0.03317499614
0.03326293738
0.02325795438
0.02264128999
0.02268190285
0.02281018254
0.02266250832
0.02285193295
0.02288471509
0.02261966716
0.02284899467
0.02297840538
0.02289641188
0.02267164148
0.02295039847
0.02299268077
0.02308197038
0.02291027494
0.02261329084
0.02559352893
0.02902711846
0.03964864691
0.02715804172
0.02341461861
0.02257058706
0.02265093434
0.02272904487
0.02266458534
0.02278530868
0.02278153578
0.02267130324
0.02278651666
0.0228885498
0.02287634175
0.02272194586
0.02289232855
0.02292908929
0.02301581671
0.02289182708
0.02274974781
0.02306983498
0.02309542486
0.02309087218
0.02315251039
0.022869318
0.0221156255
0.02485778946
0.02813784115
0.03761003173
0.0373174599
0.02624564366
0.02303996655
0.02254149277
0.02258835338
0.02266062546
0.02263895975
0.0227076407
0.02273278252
0.02267734128
0.02272085675
0.02282474461
0.02276518326
0.0227785504
0.02282576186
0.02284471841
0.02291696003
0.02290176678
0.02280821422
0.02300854756
0.02302418964
0.02301558386
0.02308369163
0.02285962015
0.02252207606
0.02325324556
0.02326541072
0.02326895241
0.02321059132
0.02318411841
0.02274584718
0.02197602223
0.02515747187
0.03105434835
0.03661698778
0.04047190971
0.03089619548
0.02544336795
0.02295875583
0.02250886111
0.02253565808
0.02258692209
0.02260835454
0.02263489335
0.02264601853
0.02265137842
0.02266163222
0.02274391827
0.02271891077
0.02278808372
0.02274857251
0.0227826494
0.02285180939
0.0227955994
0.0229218052
0.02292776807
0.02294895893
0.0229243869
0.02298285694
0.02288516032
0.02265862408
0.02319105645
0.02314668912
0.02316056998
0.02312488384
0.02311437491
0.02276033465
0.02223579467
0.02402529829
0.02579988023
0.02526804776
0.02407635435
0.02357049418
0.02326043615
0.02267049494
0.02261154875
0.03477347218
0.0579693263
0.08225751039
0.06807999761
0.04877727427
0.03086236387
0.0251206004
0.02233356504
0.02250100062
0.0224829746
0.0225421565
0.02255946702
0.0225585306
0.02260300508
0.02261344284
0.02259434594
0.02268305137
0.02263741186
0.02275063457
0.02268613771
0.02270886707
0.02276554583
0.02274748795
0.02294086406
0.02283058263
0.02285590722
0.02285068759
0.02290894102
0.02278566921
0.02288168428
0.02317436287
0.02308996205
0.02310956917
0.02303787004
0.02303560527
0.02281127155
0.02235149883
0.02387983397
0.02410311667
0.02410216706
0.02376087878
0.02338489366
0.02318340669
0.02269915524
0.02383918491
0.0394549576
0.06997755652
0.1068532064
0.07303461974
0.03399662666
0.02535696134
0.02315156847
0.02259870106
0.03079106468
0.137111363
0.3021416829
0.5152457462
0.4456899228
0.2153887573
0.07185081966
0.02870727813
0.02563770613
0.02271177005
0.02250003583
0.02245946966
0.02251216471
0.02252516156
0.02249272393
0.02254743979
0.02255818363
0.02254015241
0.02261182604
0.02259920134
0.0227023271
0.02261044386
0.02264447674
0.02270645763
0.02266362036
0.02288407367
0.02275488432
0.02279818919
0.02277504505
0.02282144689
0.02273781961
0.02294007998
0.0230538635
0.02298227032
0.02299482944
0.02293865575
0.0229301352
0.02277754427
0.02301036416
0.0241717778
0.02429962404
0.02423004455
0.02376080028
0.02332056862
0.02315423757
0.02274616358
0.02490327518
0.03528979009
0.04142770834
0.04277959119
0.03569688614
0.02839754783
0.02495687463
0.02308621054
0.02260653967
0.0547360935
0.2360441813
0.5432542074
0.9316854378
0.8144132774
0.3111930504
0.0610111393
0.02411826856
0.02304362706
0.02255007286
0.1447034782
0.7735680545
1.978041767
3.153564723
3.285324691
1.932725418
0.4843407898
0.04769305401
0.02770264581
0.02485177489
0.02267158005
0.02250766421
0.02244309392
0.02250522303
0.02248683651
0.02243182079
0.0225240468
0.02252706554
0.0224753147
0.02255881228
0.02254283328
0.02261324731
0.02256065524
0.02258222916
0.02263487669
0.02262272561
0.02278410887
0.02263855533
0.02269522642
0.02269480507
0.02275114348
0.02265562962
0.02295625394
0.02299822515
0.02293204807
0.02294150517
0.0228812237
0.02287174912
0.02271748717
0.02359773982
0.02452972003
0.02459717969
0.02432516228
0.02368871317
0.02320419894
0.02302896907
0.0227249882
0.03069137943
0.04694275877
0.05297694602
0.05020211432
0.03801733241
0.02883102218
0.02501875764
0.02306138315
0.02265470401
0.08920732208
0.2650805715
0.3964546135
0.4191069184
0.272944143
0.1204213951
0.0480002814
0.02393692679
0.02298319473
0.02255123061
0.5410075247
2.265034509
4.201101485
6.458678387
6.418785864
3.401875214
0.5500866103
0.03586074806
0.02328167911
0.02292174804
0.02256319763
0.8159982757
4.300253108
7.692673527
12.90995609
15.34366858
12.20972107
3.977214613
0.2412562936
0.0321757851
0.02819553334
0.02527311821
0.02280216373
0.0225249351
0.02243879422
0.02250460423
0.02244231501
0.02239490786
0.02250281063
0.02247863757
0.02242678579
0.02250338281
0.02251784725
0.02257080357
0.02248867189
0.02251807424
0.02258003165
0.02255812415
0.02270837212
0.02258071987
0.02264486492
0.02264152351
0.02268534893
0.02261616288
0.0227951264
0.02282904058
0.02276523668
0.02279101242
0.02276291541
0.02276766056
0.02264436466
0.02397125278
0.02480138138
0.02486434191
0.02448686577
0.02370232784
0.02315900772
0.02297345075
0.02266354207
0.04073858232
0.06093600254
0.06588214428
0.05837400704
0.03992272219
0.02880627013
0.02484994871
0.02294295597
0.02262975979
0.2275457618
0.5887596444
0.7209347584
0.6259716131
0.3354351263
0.1325508282
0.05021470894
0.02389872931
0.02292416923
0.02259194864
1.290245624
3.28780672
4.382313472
4.658812301
3.190017145
1.373158206
0.2489186552
0.03466579494
0.02319045613
0.02286468716
0.02256370552
3.73192922
13.51218678
19.17416358
25.27861873
26.21198904
18.38333948
5.029562126
0.1585165944
0.0250830845
0.02307479313
0.02283006064
0.02261841928
2.664909974
14.16678052
24.27644326
39.86744549
50.08250405
45.19556432
18.22090098
2.307691713
0.05889556969
0.03046452598
0.02844900953
0.02576999394
0.02271820925
0.02254305323
0.02243809084
0.02250828154
0.02240049819
0.02238076453
0.02249479457
0.02244820677
0.02236083173
0.02246706754
0.02248789254
0.02250156034
0.0224533605
0.02246837928
0.02253092392
0.02252817713
0.02264123189
0.02247579618
0.02255073709
0.02256094706
0.02261299539
0.02255162323
0.02273319553
0.02275216292
0.02269240836
0.02272703763
0.0227100356
0.02271775337
0.02259229924
0.02319220758
0.02343019993
0.02343027574
0.02327101117
0.0230704415
0.02289888526
0.02282445669
0.02260062089
0.04877996923
0.07022209906
0.07362739972
0.06285313912
0.04186037247
0.02911133216
0.02480460182
0.02288962483
0.02257486668
0.4284384782
0.8496362263
0.9525937229
0.7684313871
0.3933848708
0.1360303568
0.04950467845
0.023704981
0.02282766982
0.02256656835
3.687058682
7.729078818
8.98044807
7.825839057
4.622989434
1.610749012
0.2795353695
0.03535817525
0.02313256362
0.02280160669
0.02260659617
9.523154952
17.50559706
22.48919445
25.29960782
21.06265707
11.0775753
2.084516087
0.1377628593
0.02489726697
0.023005734
0.02277970205
0.02261541261
12.74536532
41.85073255
58.78769357
71.52962359
70.84044326
54.5229974
23.16442622
2.086046776
0.0445073179
0.02346403349
0.02294710378
0.02283055994
0.02266270829
5.305838473
37.85343424
63.07301255
83.63537532
107.2319717
107.1723828
53.33243274
13.39810849
0.371184662
0.03611190097
0.03113254003
0.02951740763
0.02818358013
0.02476041022
0.02254757051
0.02244861726
0.02251425945
0.02234502474
0.02237665761
0.02248899622
0.02239146191
0.02231791843
0.02243987433
0.02247548507
0.02246838021
0.02239167499
0.02240786101
0.0224857127
0.02248432487
0.02256075448
0.02242596561
0.02250610017
0.0225218033
0.02257358976
0.0225214147
0.0226334838
0.02263360991
0.02257732461
0.02262360706
0.02261908753
0.02263257921
0.02253765877
0.02283511016
0.02290299208
0.02291100238
0.02289500293
0.02287468901
0.02280112086
0.02275836676
0.02254427699
0.03122691761
0.03741385995
0.0381214852
0.0342305159
0.02836380827
0.02517759543
0.02383094185
0.02277307133
0.02250934862
0.5480661109
0.9695241404
1.060931401
0.8301007492
0.4102314786
0.138413706
0.04938548328
0.02362251769
0.02277668302
0.02252685498
5.322081376
9.791855252
11.08808047
9.420916976
5.093655148
1.699529099
0.2891322249
0.03450226554
0.02301633454
0.02271851925
0.02260705528
22.77407882
41.00869205
49.97753425
48.37454089
33.89477148
14.05094799
2.38216787
0.1471034182
0.02494915229
0.02294906506
0.02272200414
0.02266383847
29.90677535
59.36053747
75.53963839
84.38859694
74.01316052
46.78685346
15.23090487
0.9667804193
0.04233340614
0.02335781927
0.02288921591
0.02278957494
0.02265092945
25.11036443
88.27111789
138.9784287
161.8712272
151.1132588
115.599312
64.85221769
14.73688485
0.4010393363
0.02684917727
0.02313620432
0.02290017913
0.02280690629
0.02287036303
6.905157946
67.35690344
121.1338677
159.6739
206.1462886
229.1061495
130.5536984
42.51999392
3.438749391
0.1005998957
0.03638746281
0.03731706065
0.03758831269
0.03987565587
0.03514167291
0.02254628954
0.02246181821
0.02251589338
0.02229277037
0.02237992649
0.02248538325
0.02234423161
0.02225855124
0.02242711271
0.02246016509
0.02241124954
0.02236160852
0.02236848611
0.02245555528
0.02246420906
0.02251583424
0.02234169934
0.02242553185
0.02245474958
0.02251482531
0.02247369243
0.02256833615
0.02257845101
0.02252305499
0.02257532978
0.02257621041
0.02259299705
0.02248911397
0.02267168127
0.02268754665
0.02269551647
0.02269597978
0.02271646891
0.02267156444
0.02265160555
0.02249909877
0.0248898229
0.02647217533
0.02686993562
0.02613394817
0.02466071461
0.02397752848
0.02344177839
0.0227189288
0.02245672997
0.1692886141
0.3042732125
0.3427266318
0.2679240841
0.1392836339
0.06338955659
0.03751409333
0.0232105032
0.02267875068
0.02246569991
5.64611893
10.3956242
11.87424222
9.920686398
5.316770622
1.657191958
0.2919018824
0.03410954324
0.02296083928
0.02266143353
0.02258720262
28.56594663
51.88587436
63.28230316
59.56516406
38.48761
15.19139992
2.46479683
0.1447531072
0.02466635557
0.02286206701
0.02266000463
0.02267125092
65.52428604
124.6996967
162.8937981
165.7777449
128.4155986
69.6171493
18.83772322
1.063839094
0.04394012949
0.02332333514
0.02283208282
0.02274248175
0.0226815556
55.12316332
126.4200862
173.6715284
195.6512976
176.6460997
120.8180651
55.96731911
9.088557979
0.1962074069
0.02633245842
0.02305856709
0.0228485257
0.02276579905
0.02283493645
33.17920546
135.8485208
229.7559883
264.0431959
239.5612518
194.7221772
129.181987
51.6741603
5.355801062
0.1331567584
0.02368525828
0.02304501711
0.02284102081
0.02292792863
0.02302992425
7.316864866
80.31937131
181.8015841
297.4245621
316.1905686
373.2625726
246.2340027
109.7945346
19.55222216
1.080049908
0.05311865159
0.04509872385
0.04230004803
0.03917380334
0.03287641733
0.0225339073
0.02246466931
0.02251263989
0.02223200378
0.02239462443
0.02247913178
0.02228248675
0.02223176349
0.02241926084
0.02245224131
0.02236410037
0.02230297367
0.02231436703
0.02242494904
0.02243307891
0.02244758079
0.02230381497
0.02238740238
0.02242311423
0.02248799199
0.02245067823
0.02249963762
0.02248211855
0.02243037016
0.02249267049
0.02250600402
0.02252923925
0.0224561563
0.02260921485
0.02261304135
0.02260987702
0.02261372045
0.02264832561
0.02261482214
0.02260491333
0.02244326071
0.02291104669
0.02313700521
0.02330459851
0.0233786021
0.02322195586
0.02315959592
0.02293007952
0.022625728
0.02240458521
0.05744448392
0.08950533705
0.1021784349
0.08875575522
0.05884948523
0.0403628867
0.03292308182
0.02302705786
0.02263199083
0.0224284762
1.731986351
3.573122959
4.508098325
3.758139813
1.903000432
0.614913732
0.1630777037
0.02943912434
0.02282865186
0.02257642404
0.02254896647
28.94987449
54.82682466
67.56577474
62.96495929
40.57038477
15.05229054
2.434417525
0.1442302128
0.02453707803
0.02281466491
0.02261289529
0.02266172538
83.34249091
155.1952861
205.2663122
206.994372
155.1216731
78.00235602
20.22651084
1.073836333
0.04285507339
0.02319003548
0.02276427474
0.0227024602
0.02268152305
111.8220302
233.2232132
324.4093046
342.7776752
288.7862912
190.8303979
81.22321201
11.24420985
0.2027870245
0.02648661686
0.02301886511
0.02279387516
0.0227106522
0.02282250839
68.49502049
178.8495774
274.0918978
318.679115
301.868491
233.4977818
135.0585358
43.01840118
2.45335251
0.0688402646
0.02352313475
0.02297673675
0.022788923
0.02287451474
0.02298130052
34.8741807
165.2338377
300.7101772
351.868459
340.5626973
288.9302499
209.0837652
117.415235
29.44825786
2.263998856
0.04020776097
0.02320343807
0.0229486295
0.02294394576
0.0230646284
6.633614812
90.56398195
224.9523127
416.8441959
452.4286436
560.9022076
439.8873445
219.0262055
62.98586302
8.354736478
0.2989622737
0.04406420694
0.0396020348
0.031889188
0.02409443177
0.02250829974
0.02246405523
0.0224988202
0.02219270688
0.02240773517
0.02246839622
0.02221311022
0.02220067374
0.02241410063
0.02243753467
0.02231430397
0.02227132452
0.02228902878
0.02240644879
0.02241747261
0.0224085115
0.02224402622
0.02232032649
0.02236859573
0.02244342581
0.02241249087
0.02243857509
0.02243527903
0.0223853629
0.0224523477
0.02247390949
0.02249942881
0.02241139716
0.02252648043
0.02253063036
0.02252138975
0.02252576126
0.02256466886
0.02254032418
0.02253353906
0.02241372873
0.02262582754
0.02263756011
0.02269068649
0.02279494866
0.02280050894
0.02282884291
0.0227452662
0.02258339396
0.02235303606
0.02635358658
0.0306935529
0.03360550188
0.03378988312
0.0308994456
0.02946027529
0.02712535465
0.02276407383
0.02254586895
0.02237709174
0.4317317657
0.9206580717
1.199238221
1.04325658
0.586201862
0.2471905444
0.1155123923
0.02740614236
0.02276466833
0.02253215972
0.02252967157
11.5529973
25.88657484
36.18891549
34.51184087
20.16164868
6.604119114
1.069460211
0.09291598396
0.02384715149
0.02271946822
0.02255489238
0.02263587148
80.72134209
163.6734485
219.9196626
222.9556529
165.4362782
81.31003962
19.78020674
1.129349015
0.04211166462
0.02312977899
0.02271606861
0.02266718354
0.02266966497
144.2853547
285.8766818
403.827568
435.0278614
366.6268658
231.371661
90.90197869
12.16772396
0.1894700133
0.02604991009
0.02292148406
0.02273931353
0.02267734789
0.02274210428
135.0547383
306.8703935
444.5110093
499.0228429
462.8262822
357.497697
209.6145978
64.70105489
2.743530231
0.06764303838
0.02348177884
0.02292586212
0.02272119919
0.02279080595
0.02289791866
69.75688187
201.8235123
345.2227442
430.2295255
429.8020103
362.5395357
252.0685589
118.4481063
21.45876556
1.015379227
0.03098871462
0.02311333022
0.02288535526
0.02288876348
0.02301575396
30.91575998
166.6629074
338.9049895
432.1657511
438.2709706
383.5247314
295.6342752
197.9806583
87.80027369
18.77080816
0.6399483599
0.02417061303
0.02306656735
0.0229681006
0.02294255878
4.435766156
78.05504416
224.5022678
471.2372015
633.1090973
813.9820513
706.4340306
404.1266287
161.5709829
35.82379502
2.822073773
0.06749698845
0.03156439751
0.02671987976
0.02297280802
0.02246949521
0.02245244566
0.02247311928
0.02217691799
0.022409432
0.02245027052
0.02215945189
0.02218924734
0.02240836128
0.02242287877
0.02225152562
0.02220968509
0.02225177233
0.02238248311
0.02238930498
0.02235343213
0.02221734332
0.0222884917
0.0223425695
0.02242231166
0.02239280933
0.02238724914
0.02235250138
0.02230926571
0.02238367381
0.02241978884
0.02244887003
0.02238792913
0.0224678437
0.02247003699
0.02245919706
0.02246669457
0.02251373402
0.02250506069
0.02250019338
0.02236427282
0.02257263822
0.02255653375
0.02257473818
0.02264347067
0.02264828216
0.02266024729
0.02260209816
0.02251304954
0.02231494425
0.02271888136
0.0231235606
0.02363713152
0.02437736578
0.0247317442
0.02543980902
0.02497806256
0.02266588109
0.02250521716
0.02233831616
0.06720032228
0.1299870193
0.1812462724
0.1843239635
0.1349985227
0.09774676061
0.06911355272
0.02460121742
0.02265423311
0.02245500624
0.0224924212
3.052173078
7.59539436
11.21691239
10.78270035
6.438171676
2.341948023
0.5427268591
0.07128575682
0.02350251518
0.02267321993
0.02251731687
0.02262194442
41.14940378
109.3509136
166.7114539
178.237049
128.6906787
53.41028313
9.25715996
0.5533479381
0.03536816083
0.02295627634
0.02264442414
0.02263424881
0.0226337575
138.0640565
304.7405466
441.6289899
482.7844515
404.5494646
248.8656043
95.26191494
12.08484789
0.1898931306
0.02587667201
0.02287551765
0.02269379758
0.02263030435
0.02270512999
175.7773968
375.0314604
547.9023273
619.3628047
590.3129865
459.3130646
254.7232981
72.65216854
2.383400351
0.05799841154
0.02331752715
0.02284384797
0.02268186871
0.02274697268
0.02284935485
132.4861632
332.0983754
502.6992717
600.5690895
611.3674261
535.7872829
383.7935875
189.5886265
29.69047794
0.9844571314
0.03030027627
0.02306866511
0.02281959985
0.02280203061
0.02296727258
60.89908112
200.1894447
377.9679736
512.9018342
547.9302944
502.7499023
391.4330213
240.5140322
83.41194076
10.73579173
0.2603363574
0.02381159686
0.02299709966
0.02291195968
0.02291062053
20.50488651
147.9606987
333.673821
486.1828875
548.4520945
492.4684979
379.0997703
280.3354043
171.1250437
61.51244468
7.061122649
0.08522202975
0.02322836197
0.02304325134
0.02285850156
1.413297662
52.62459309
201.9652105
482.2321234
765.4890504
1100.993554
1173.788353
661.7530396
306.6098499
117.7146381
15.50780133
0.5877141756
0.03092476828
0.02566735684
0.02302623037
0.02241841362
0.02242475672
0.02243577986
0.02216917709
0.02240339679
0.02242329315
0.0221148456
0.02217874471
0.02239599588
0.02239686252
0.0222122083
0.02217887203
0.02223435192
0.02236525746
0.02236910707
0.02231214859
0.02217443524
0.02223423857
0.02229520001
0.02238577665
0.02235592727
0.02233545138
0.02231293304
0.02227570165
0.02235184673
0.02238795797
0.02242438679
0.02234766765
0.02240231154
0.02241049078
0.02239223121
0.02239981982
0.0224543257
0.02244656358
0.02244423846
0.0223393711
0.02249416617
0.02246137188
0.02248261406
0.02254653571
0.02256110293
0.02257428538
0.02253715953
0.0224799648
0.02226281026
0.02253997964
0.02271506097
0.0228279649
0.0231560904
0.02334532136
0.02372322375
0.02358945903
0.02256701635
0.02243347422
0.02229340761
0.02402515428
0.02685594557
0.03227456572
0.03968447442
0.04516533351
0.05317267413
0.05015090982
0.02360008823
0.02260560619
0.02241789586
0.02246959287
0.3965652703
1.114880034
1.81213809
1.916569407
1.286102336
0.6595564887
0.3008232157
0.04585234458
0.02297421119
0.0225854184
0.02245828313
0.02259139868
12.86897943
37.42265403
61.65949896
68.99141848
48.81865127
19.27774514
3.539681335
0.3239447371
0.03194149969
0.02287050627
0.02260489716
0.0226047382
0.02261498461
83.51954764
251.3924526
409.0577352
471.6222078
394.4493
223.8634386
66.52278171
5.353749026
0.1301300016
0.02475419858
0.0227751912
0.02264089572
0.02260109764
0.02265347696
166.2715483
403.8541485
608.2306877
711.1767612
684.8011156
514.0075439
274.6687166
74.25577059
2.251201632
0.05596661581
0.02324730441
0.02280237581
0.02262419348
0.02266624325
0.02277921736
169.8899727
404.6009982
600.6359122
707.3230655
743.2549605
683.4250339
494.6910112
228.0086134
32.0801082
0.594294744
0.02805731427
0.02296256561
0.02275936935
0.02275226067
0.0228802222
109.518097
322.2097719
510.6540278
645.6437234
714.1291552
701.6128756
583.9132688
374.5287883
127.5766698
12.61953464
0.2341690716
0.02373558709
0.02292218509
0.02282534852
0.0229040575
41.24309938
177.957731
367.6375839
547.7111299
646.6661163
634.8069963
573.3690939
397.9592931
197.5886129
50.4720875
3.861656369
0.04546666076
0.0231387629
0.02298481458
0.02283989103
6.865938189
109.5026658
292.1190725
473.3323389
638.0574565
729.4177693
599.2464158
369.225048
260.0867365
136.0911778
32.12945357
1.30870154
0.02485443043
0.02314628323
0.02279746725
0.2894443307
21.12525733
157.4870907
423.7320635
767.6961238
1456.298375
2172.017156
1316.850312
554.9703804
240.3012796
57.10103772
4.830885457
0.06946648564
0.02519037396
0.02314203646
0.02235550252
0.02237964488
0.02238813075
0.02216056411
0.02237926905
0.02238670161
0.02209785932
0.02217238584
0.02237556869
0.02236605754
0.02217236033
0.02214027392
0.0222046482
0.02233498295
0.02233252561
0.02227432381
0.0221543159
0.0222096493
0.02227185324
0.02236357306
0.02233259136
0.02229499999
0.02224941354
0.02222155526
0.0222970355
0.02234332061
0.02237940176
0.02232242963
0.02235844416
0.02236454941
0.02234332252
0.02235769289
0.02241202417
0.02241291966
0.02241714004
0.02229491141
0.02244305378
0.02241403597
0.02242950851
0.02247963468
0.02249435345
0.02250592243
0.02246370715
0.02242268568
0.02223393067
0.02249256843
0.0226195426
0.02259489273
0.02274995296
0.02282368741
0.02299532809
0.0230155547
0.02252074783
0.0223994588
0.02225479353
0.02263400217
0.02293304989
0.02439182947
0.02749552242
0.03084463356
0.03666436533
0.03567010114
0.02297899894
0.02252746888
0.02235079204
0.02242845217
0.03600710979
0.06553774632
0.1102533659
0.1668162611
0.2067767004
0.2422252518
0.2030450669
0.03579660351
0.02279140858
0.02254352977
0.02242241469
0.02256406488
2.036214887
6.978492296
13.20601743
15.43095069
10.92578183
4.651597568
1.273861084
0.1901399887
0.02655519134
0.0227254004
0.02253051204
0.02256773551
0.02257289494
28.68219582
107.5621945
219.4046984
283.832367
236.2439756
113.7320785
25.34939207
2.057531023
0.09839130169
0.0241630445
0.022727211
0.02260277205
0.02255384633
0.02256558107
104.3571416
360.8017686
619.6785127
747.0625164
720.6473044
525.9169694
252.0317594
47.94876842
1.005799336
0.0432949842
0.02303312053
0.02271994626
0.02259107401
0.02261792382
0.0227467253
155.4562042
436.741823
675.9837429
795.8577082
845.2781246
797.6751045
556.4475297
243.7373614
29.47388433
0.4960730177
0.02746361727
0.02291363702
0.02270117508
0.02267059974
0.02281254195
135.6415821
386.2218607
592.6337884
720.5219198
811.5675066
847.9033244
742.4930615
477.7367272
148.1794561
10.69408234
0.130398534
0.02346452342
0.02285092005
0.0227718424
0.02282003709
69.13810134
281.4827977
484.195652
640.0990468
760.3495798
826.2712665
806.7017792
601.3855037
305.6311182
69.35505242
4.150862137
0.04196293532
0.02306928897
0.02290183663
0.02285238744
15.05787293
134.7135281
323.2617585
519.3632591
691.8732189
803.8092879
745.3040579
629.6144061
358.4152582
139.9378893
24.16650335
0.6921602641
0.02408745316
0.02308541916
0.02279138242
1.177131739
57.86570067
229.8296467
414.0216289
606.1505137
1004.803627
1247.506843
697.6657991
357.0100766
221.3158314
84.60649163
10.40621103
0.100713734
0.02322330914
0.02279642724
0.05307692304
6.502299328
76.50409798
301.7672287
651.9440533
1442.98859
3221.944613
2751.467973
992.3315345
466.497836
157.1295735
22.01345283
0.7014093905
0.02564193905
0.02295811542
0.02227804473
0.02231858136
0.02232888838
0.02214713254
0.02233551859
0.02234048393
0.02208564837
0.02215912947
0.02234165
0.02232317029
0.02215259489
0.02212428891
0.02218826779
0.02230902928
0.02229897628
0.02223559338
0.02212162256
0.02217117621
0.02222795467
0.02232306608
0.02228918104
0.0222503061
0.0222156697
0.02218783132
0.02226454225
0.02231424679
0.02235484348
0.02228031461
0.02230494575
0.02231768229
0.02228965655
0.02229732378
0.02236080577
0.02236933518
0.02236748163
0.02227051258
0.02238157782
0.02234580854
0.02236374189
0.02241438224
0.02244009716
0.02245744153
0.02242340478
0.02239468673
0.02218293153
0.02243329188
0.02252710818
0.02248262031
0.02258697272
0.02262020288
0.02268494509
0.02272018875
0.02245417964
0.02233844967
0.02220971852
0.02258097516
0.02270396121
0.02328062469
0.02441608038
0.02570423629
0.02869925468
0.02935569531
0.02272233518
0.02248999302
0.02231828385
0.02240010964
0.0227555212
0.02341782343
0.0284837134
0.05198553401
0.08891749935
0.1420146521
0.1312137976
0.02840665781
0.02264942859
0.0224669077
0.02235928455
0.02252049119
0.1113867497
0.3873739407
0.8405036241
1.184006188
1.229114263
0.9776169581
0.7200543726
0.1320466544
0.02462654763
0.02266467747
0.02249332533
0.0225356104
0.02253791425
5.231978829
26.68264124
56.9744737
77.66296565
66.2948104
31.19447509
6.494839805
0.8097393494
0.06149446934
0.0232865652
0.02263739331
0.02254921365
0.02252005058
0.02249381818
36.82890044
193.0832541
453.6341029
637.9985212
611.1246579
395.3708834
138.7368576
17.14055833
0.4568159432
0.03656745946
0.02292898501
0.02268016301
0.02253483191
0.02252845639
0.02262360979
93.64735097
398.533797
705.442618
853.3502391
905.3713442
848.4454063
572.1865007
212.7777795
14.01132287
0.2343467422
0.02527892833
0.02281076854
0.02264077815
0.02262278495
0.02273883253
118.4838913
412.442722
662.1696275
784.4693244
874.5576609
935.5489528
857.7049066
529.1945556
154.2838798
8.476682108
0.1066283221
0.02336182799
0.02278844776
0.02269564746
0.02277289088
82.03567175
329.9739979
553.8658712
683.5993628
806.7777654
924.2434059
963.572485
758.800368
371.0981415
74.69322841
2.463810276
0.03284643559
0.02295978547
0.02283613843
0.02278859646
28.84372126
211.078749
434.3188114
590.1213358
747.7694901
914.159873
992.6380152
883.0390335
533.0298845
199.7848897
29.21394158
0.6345802247
0.02394072899
0.02300049222
0.02282857216
2.769295665
76.26615492
259.4831895
450.6203435
643.6952393
966.8834926
1166.393707
909.8386255
608.4548738
274.977609
81.4578382
6.960280168
0.06021720456
0.02315686931
0.02284297253
0.1731356155
21.88702772
158.988992
344.476795
502.9800565
972.2893059
2116.834387
1782.022894
615.7356463
330.9431549
157.395195
36.01391759
1.383578331
0.02462543097
0.02274181405
0.02371987577
1.893988323
35.67770834
192.4791612
497.1022397
1030.102392
3435.175427
6886.166311
2183.318644
693.8364538
248.3066119
61.98467373
5.00131295
0.05956187168
0.02214649667
0.02218302422
0.02224084862
0.02225610819
0.02211107394
0.02227576294
0.02228266402
0.02207470688
0.02213337578
0.02229601944
0.02227295116
0.02212192953
0.02210229606
0.02215379345
0.02226328324
0.02224879759
0.02221486197
0.02210576924
0.02215249068
0.0222041602
0.022294943
0.0222557253
0.0222160541
0.02217424902
0.02215857579
0.02222236657
0.02226598216
0.02230741422
0.02224977499
0.02227221686
0.0222800872
0.022250366
0.02226778836
0.02232635349
0.02233099743
0.02234054367
0.02222619252
0.02234010022
0.02230003045
0.02231776727
0.02235810219
0.02238696494
0.02240853157
0.02237610461
0.02234186427
0.02215645077
0.02238162866
0.02247986112
0.02240899074
0.02251272861
0.02252845516
0.02254631778
0.02255934098
0.02242119917
0.02230876428
0.02217711678
0.02250822864
0.0225876239
0.02278229817
0.02314091457
0.02369192496
0.02514738164
0.02616069114
0.0225900452
0.02242394623
0.02225789103
0.02235621667
0.0226021357
0.02283655024
0.02498751001
0.03725415402
0.05430369813
0.08440894858
0.08410474489
0.02532548669
0.02258493429
0.02242982085
0.02232179471
0.02248231288
0.02338616748
0.02633297483
0.03735367238
0.1037838528
0.3395999693
0.5283236254
0.5979181377
0.08421704736
0.02340788638
0.02257710224
0.02241846628
0.02248955334
0.02248385429
0.326858225
2.085173719
5.491423498
8.433699249
7.597767576
4.30658669
1.577756949
0.5072298852
0.04586361031
0.02296415437
0.02259485244
0.02251589828
0.0224668638
0.02240146927
7.314437349
52.90204837
155.3625524
262.7828877
266.1474841
150.9494638
40.38371388
4.193574897
0.2388570299
0.02946114731
0.0227682878
0.02260375308
0.02249981117
0.02246802207
0.02253433984
32.08462797
224.9782608
598.5722882
831.1475877
892.151943
780.2787752
447.203282
106.3149255
4.456092726
0.1208812784
0.02428717063
0.02276209525
0.02258696218
0.02253741988
0.02261930368
64.79493255
368.132528
692.9539222
844.6457197
933.0243862
980.7759448
908.0984177
530.5693149
112.8244695
3.337197264
0.05460979922
0.02305926666
0.0227177911
0.02264598028
0.02266096767
66.85135327
345.7307971
612.0795817
727.4539093
823.4277927
950.3450085
1041.105088
862.9068363
399.3999912
68.05813753
1.753655424
0.03062445463
0.0229055886
0.02276186711
0.02273996912
33.95751999
241.1626108
497.3467094
618.2514166
754.0610781
928.0596166
1092.619438
1030.845478
653.1932696
225.8911077
27.36463338
0.280076475
0.023570925
0.02292328969
0.02279026127
6.504394275
126.0042817
366.3833923
523.7862587
665.7406665
953.9529606
1204.368711
1180.826299
837.0714282
384.3257335
104.9923344
7.876466229
0.05390464827
0.0231053343
0.02288925688
0.3488991016
28.08085688
185.7241776
369.4269869
538.9056282
913.9493307
1650.20923
1728.689975
968.588178
482.2918048
177.360854
32.03587837
0.9632394497
0.02422074926
0.02286471135
0.03081075633
6.231231667
84.2323171
262.8647449
413.3257174
607.0615074
2274.260461
4609.642337
1784.546082
498.7300838
247.9652769
88.38969371
9.491137448
0.08203695051
0.02254858736
0.021798328
0.24577368
11.6416595
95.75364138
323.4937901
666.2176805
2102.73357
5402.452762
5285.228904
938.7095774
369.3311479
136.7216255
19.70009404
0.5573187702
0.0222078534
0.02207057154
0.02214263162
0.02216646668
0.02205590694
0.02220300801
0.02220951165
0.0220558298
0.02208977052
0.02223736636
0.02220947169
0.02209883539
0.02208849336
0.02212409944
0.02222113811
0.02220124865
0.02218060328
0.02207729913
0.02212040504
0.02215779874
0.02224415583
0.02220265294
0.02218505792
0.02214338644
0.02212511119
0.02219240189
0.0222369808
0.02227734504
0.02220193624
0.02223038064
0.02224592349
0.02220835205
0.02221677215
0.02227470129
0.02228492333
0.02228980216
0.02219757925
0.02229099748
0.02225110788
0.02227311854
0.02231161721
0.02234373973
0.02236744322