/*--------------------------------*- C++ -*----------------------------------*\
  =========                 |
  \\      /  F ield         | OpenFOAM: The Open Source CFD Toolbox
   \\    /   O peration     | Website:  https://openfoam.org
    \\  /    A nd           | Version:  12
     \\/     M anipulation  |
\*---------------------------------------------------------------------------*/
FoamFile
{
    format      ascii;
    class       volScalarField;
    location    "0.3";
    object      nut;
}
// * * * * * * * * * * * * * * * * * * * * * * * * * * * * * * * * * * * * * //

dimensions      [0 2 -1 0 0 0 0];

internalField   nonuniform List<scalar> 
110452
(
0.0003633175919
0.0002676881804
0.000166064011
0.0007791808599
0.0002861498338
0.0001845910453
0.000222070366
0.0001247317598
0.001108411086
0.0004088405909
0.0003806972319
0.0001853850194
0.0002227012538
0.0001507235574
0.0001327223392
0.0002640602273
9.377684924e-05
0.0007362541806
0.002399079804
9.037538269e-05
0.0004103240314
0.0003037289791
0.0008140185703
0.0001398129092
0.0003414479117
0.0002349049532
0.0001331756037
0.0001141967114
0.0001344616642
0.0002229372765
7.309570047e-05
0.0007555039676
0.002295846012
0.001853127641
0.0001193133003
0.0004821269534
0.0003528697638
0.001183276233
0.0002181865592
0.0004482540502
0.0006189628198
0.0001165696083
0.0003412302427
0.0003313307624
0.0002127243013
0.0001217404998
0.0001124983315
0.0001194598432
0.0001506489255
0.0001838326569
7.56985492e-05
0.0007327764522
0.001385148665
0.002553302298
0.0008646182288
9.68712781e-05
0.0004878023866
0.000389394108
0.000966044191
0.0002824440406
0.0006405759323
0.001240619761
0.0001698592432
0.0003504691203
0.0003939821941
0.000448938122
0.0001027338855
0.0003294518427
0.0003197150457
0.0003531650352
0.0001662574194
0.0001119429759
0.0001112460762
0.0001264951117
0.000119777564
0.0001557633517
0.0001634769026
5.982762405e-05
0.0005877879839
0.001176432395
0.002464494104
0.002639510093
0.0009521022519
9.450531047e-05
0.0009368070659
0.000900216612
0.0008540415588
0.0003580497435
0.0006705756798
0.001110647764
0.0002241429815
0.0004658824899
0.0005784104486
0.001153343921
0.0001401006513
0.0002915582375
0.0003467039091
0.0003583101269
0.0002847446732
9.700459599e-05
0.0003215307936
0.0003125329606
0.0003546641977
0.0004749710259
0.0001470553609
9.411155279e-05
0.0001211859208
0.0001311664665
0.0001284578845
0.0001362351728
0.0001486812631
0.000151918892
2.447435879e-05
0.0004089790238
0.001086075104
0.002350295262
0.002366707883
0.001706148585
0.0007454840389
8.385462163e-05
0.000752939441
0.0007636085042
0.0007459884676
0.0007995890586
0.000654896604
0.0008552672751
0.0002847801151
0.0005100017148
0.0006372117277
0.001174455925
0.0001782111503
0.0003620272661
0.0004370783862
0.0005098478639
0.0006162854322
0.0001332492304
0.0002520133923
0.0003081165606
0.0003479886332
0.0003383186357
0.0002639702967
8.377861282e-05
0.0003337857241
0.0003122653377
0.0003617126219
0.0004645672743
0.0005633793049
0.0001221498185
5.998118294e-05
0.0001354780042
0.0001663458761
0.0001718163011
0.0001493439882
0.0001654501858
0.0001427607994
0.0001440461247
2.519737666e-05
0.0005310592429
0.001652264776
0.003301958994
0.003254078757
0.003052591703
0.001811125114
0.0007472210162
6.672296369e-05
0.0006971863123
0.0006169175889
0.0006627448826
0.0007299975713
0.000587389996
0.0006880608812
0.0005842465789
0.0005438261645
0.0006031779841
0.0008396547605
0.000195838407
0.0003802878789
0.0004628887156
0.0005813803817
0.001171060788
0.000176836013
0.0002761087768
0.0003523260045
0.0004168944513
0.0004215223501
0.0004597587908
0.0001110115514
0.0002496506352
0.0002770315257
0.0003325522893
0.000340627849
0.000328640842
0.0002076607026
6.358060202e-05
0.0003004733631
0.0003666368995
0.0003926041335
0.0005049967089
0.0006283247304
0.0007562576517
0.0001136289883
6.665769909e-05
0.0004272968767
0.0008509698187
0.001149042415
0.0007491509846
0.000448380682
0.0003352193232
0.0001277072244
0.0001420611343
6.624966219e-05
0.001945545897
0.006558626738
0.01318065302
0.0115180971
0.006304052664
0.003240643792
0.001482991919
0.0008405644531
8.672182996e-05
0.0006912279026
0.0005876527366
0.000637013428
0.0006093078254
0.0005289393414
0.0006106861928
0.0005809480037
0.000534952598
0.0005139951052
0.0006432355141
0.0004374167578
0.0003989987106
0.0004845205416
0.0005468151659
0.0008369277128
0.0002760395967
0.0002794276293
0.0003507102298
0.0004172999823
0.0005255776883
0.001037681257
0.0001470406776
0.000250833027
0.0002888906069
0.0003555702111
0.0003882046828
0.000373432208
0.0002857989859
9.580025552e-05
0.0002387600718
0.0002991488792
0.0003467836182
0.0003750783476
0.0003652660682
0.0003383609541
0.0001950049041
6.283872834e-05
0.0006808031921
0.001164314715
0.001493203749
0.001513302643
0.001516801364
0.001379196753
0.0009377322909
0.0001111969079
0.0004562518033
0.004948504132
0.01464406692
0.02196262544
0.01994939149
0.01147771147
0.004101959077
0.000217602173
0.00011551957
0.000147229966
0.0005533960676
0.0104788397
0.02926501441
0.03269664617
0.03118871325
0.0212477146
0.00657456894
0.002801201542
0.001320411679
0.0006886194773
8.448806959e-05
0.0007533031555
0.0005979733986
0.0006574545969
0.0005892080891
0.0005198741041
0.0005895103444
0.0005162073601
0.0005078643014
0.0004659209452
0.0005724975198
0.0004876518249
0.0004078809834
0.0004634585275
0.0004638640447
0.0006178743159
0.0003737293832
0.0003137274963
0.0003545553388
0.0004223465542
0.0005055684709
0.0008251887516
0.0002599670642
0.0002434283272
0.0002786167786
0.0003288111853
0.0003875559385
0.0004769638016
0.0006221570035
0.0001321020335
0.000238549187
0.0002930864808
0.0003404627585
0.0003826883933
0.0003864799917
0.0003452642707
0.0003002799507
0.0001465179126
0.0006953842052
0.001141518154
0.001412446967
0.001182598601
0.0009424178481
0.0006855649115
0.0003353362011
0.0001933616557
0.0007955284506
0.01043222618
0.01437624569
0.01407262235
0.01087256938
0.00678631413
0.00361939982
0.0009577941942
0.0008717365086
0.0001164469234
0.00738070375
0.03211351243
0.04069734218
0.04682673238
0.04547654099
0.03020865761
0.006966518474
0.00196837401
0.0001398685365
0.0001109062839
0.0001565678256
0.002991321384
0.04188860545
0.05000152225
0.05785249043
0.05263170985
0.04989493817
0.01845720973
0.004204040697
0.001954134981
0.001479996584
0.000848192639
8.870850024e-05
0.0008474054702
0.0006663151615
0.0007181849644
0.0006017377777
0.0005485092742
0.0006156823434
0.0005178051014
0.0005118785264
0.0004566027644
0.0005536464124
0.0004733351589
0.0004058459609
0.0004508138988
0.0004226046689
0.0005400246904
0.0003693749898
0.0003348448498
0.0003500410388
0.00040274112
0.0004293131393
0.0006145019988
0.0003064202825
0.0002540013352
0.0002769699787
0.0003095802237
0.0003822998153
0.0004771928525
0.0008213215136
0.0002213601589
0.0002412424097
0.0002719393336
0.0003056277472
0.0003400585968
0.000377071926
0.0004256798997
0.0006196507064
0.0002455719195
0.0007513008873
0.001070769689
0.001231127227
0.00102190136
0.00086593078
0.0006367074966
0.000342819043
0.0003041630174
0.003861448442
0.01719330311
0.02033620365
0.01783039523
0.01200834907
0.00686689747
0.003522590921
0.000472167761
0.0003252791592
0.0002112823609
0.01873636499
0.03790146885
0.04068498813
0.03915545016
0.02903294723
0.01721085575
0.003986175662
0.004146746795
0.0006053208545
0.0007636526561
0.0001277117343
0.04036417444
0.0646717089
0.0740679532
0.08517414683
0.09057638279
0.07491441194
0.02691876581
0.003322666682
0.0002946423764
0.0001260115733
0.0001116584331
0.0001705623339
0.01675382922
0.06756965428
0.0726654747
0.08819166293
0.08725054006
0.09024831122
0.03997721122
0.01296234805
0.002662613495
0.00171792326
0.00138991519
0.0009540068919
7.190830402e-05
0.0009836375257
0.0007769567044
0.0008139358203
0.0006689946925
0.0006141106577
0.0006713459254
0.0005398789044
0.0005460569329
0.000479860266
0.0005826051463
0.0005004091991
0.0004225891722
0.0004614565689
0.0004182813677
0.0005301083771
0.0003810826372
0.0003508989872
0.0003550982845
0.0003958162283
0.0003898009745
0.0005311453666
0.0003001473986
0.0002593483927
0.0002789630131
0.0002981927231
0.0003643964289
0.0004142884528
0.0006206871513
0.0002524049254
0.0002165173851
0.0002306500195
0.0002552516249
0.0002925187163
0.0003578336829
0.0004548724622
0.0009028699995
0.00045860125
0.0007521865078
0.0009441129122
0.001002597461
0.0008318061167
0.0007139852039
0.000606192105
0.0003998582349
0.0006552127296
0.006188873978
0.02381192394
0.02424952808
0.02193777083
0.01533894589
0.007607213107
0.003598562739
0.0004339006661
0.0003466694879
0.000342035101
0.04151802732
0.05402239356
0.05571657612
0.04958597038
0.03604557197
0.01785616471
0.003931749427
0.0040456132
0.0003356692694
0.000332896817
0.0002426586228
0.05568068852
0.06963673771
0.07860626515
0.08244078015
0.074957596
0.05050630508
0.01240501428
0.003104859086
0.0008401999139
0.0005193866119
0.0006036268966
0.0001554283232
0.05537673835
0.1068453054
0.1345079064
0.1640712658
0.1699017954
0.153519257
0.08676501027
0.01318883318
0.003322780298
0.0001500250691
0.000122971163
0.0001232017392
0.0001937665354
0.02987829786
0.09072614308
0.1046062359
0.1175414704
0.1277878713
0.1337257247
0.07448638183
0.02973798774
0.005649203282
0.002450975751
0.001904382806
0.00158712276
0.001379107232
0.0002180366528
0.00113577285
0.0009436771347
0.0009415947203
0.0007848720179
0.0007217018318
0.0007608311919
0.0005961331758
0.0006176701336
0.0005300620899
0.0006394731415
0.0005486135606
0.0004590083112
0.0004968268112
0.0004420364042
0.0005575023567
0.0004114528316
0.000383460334
0.0003787238368
0.0004109854406
0.0003874923914
0.0005196478699
0.0003164072237
0.0002729505343
0.0002923398077
0.0003005144098
0.0003584096492
0.0003761334918
0.0005422829071
0.000236431544
0.0002086435411
0.0002201269651
0.000240372
0.0002729631633
0.0003401813542
0.0004096872186
0.0006836357744
0.0002775301452
0.0003051790986
0.0003476544859
0.0003886037646
0.0003856845091
0.0004129595929
0.0004511071129
0.0004724542097
0.001051564432
0.007958396551
0.017257887
0.02357611837
0.02303634795
0.01649061467
0.00813871226
0.003609122686
0.0004185831249
0.000410122833
0.0007126073517
0.05286956442
0.06122556854
0.06282926321
0.05637683988
0.03904429592
0.01947099968
0.004000357925
0.003762829557
0.0003425940876
0.0003704070513
0.0004037059058
0.09304854906
0.1104912364
0.1218949529
0.1204557598
0.1000335247
0.0578620178
0.01276343468
0.002973095829
0.0006494082176
0.0003280333175
0.0003534146964
0.0003345909378
0.09613821328
0.1330093185
0.1476330171
0.1643618718
0.1639734252
0.1326846192
0.06105843259
0.00675813771
0.003376480551
0.0004401478318
0.0004461429863
0.0005041610364
0.0001898790312
0.0840947259
0.1892749275
0.2569483374
0.2915708057
0.2858977682
0.24772675
0.1757945433
0.06027012221
0.006163916985
0.0004472503585
0.0001270933789
0.0001284508904
0.0001397370584
0.0002454089108
0.03994743518
0.1158215787
0.1438564728
0.1622426881
0.1898511928
0.2089592899
0.1328403727
0.05570242757
0.01858808312
0.003627547536
0.002519343859
0.002670418188
0.002743267791
0.003024712486
0.001395352631
0.001271585165
0.001154904059
0.001082832976
0.0009768273422
0.0008764016241
0.0008775823625
0.0006864663736
0.0007355913105
0.0006087414156
0.0007284484149
0.0006287939627
0.0005199429851
0.0005612055784
0.0004912868083
0.0006168726049
0.0004666258511
0.0004373256946
0.0004201131579
0.000447815193
0.0004106630744
0.0005481162728
0.0003546145646
0.0003059942941
0.0003242207572
0.0003234552261
0.0003735685802
0.0003747211583
0.0005199307249
0.0002494805892
0.000215074427
0.0002265651677
0.0002425678277
0.0002695174984
0.0003342748717
0.0003712118877
0.0005880932897
0.0002062482257
0.0001990585038
0.0002199074603
0.0002513960317
0.0002734120453
0.000314654894
0.000381842938
0.0004457131475
0.0007819209609
0.001424847836
0.002679258537
0.003870329216
0.004465925289
0.00404137153
0.003920382634
0.003546809132
0.00038346669
0.0005346213541
0.001156591463
0.06429119812
0.07147826903
0.07370689986
0.06648907436
0.04542988593
0.02010247163
0.004089799138
0.003246407546
0.000356901531
0.000440730907
0.0008271617474
0.1124604559
0.1289344551
0.1426284425
0.1393289115
0.1087380469
0.06113088816
0.01282068998
0.00288408016
0.0005958462274
0.0003568143855
0.0004127806425
0.0005945598618
0.1675351794
0.2114554951
0.2459723178
0.2564330299
0.2296093593
0.1670973663
0.0686443952
0.006655992444
0.003195674051
0.0003479386425
0.0003397277839
0.0003896382969
0.000453160368
0.147372012
0.2206720413
0.2648877437
0.2952278188
0.2947534536
0.2451996715
0.1545030822
0.04003586154
0.003406546147
0.001060685628
0.000371325918
0.0003955114671
0.0003815450209
0.0003250718907
0.1022305653
0.2679060908
0.3696492712
0.3998714202
0.3730777338
0.3358296502
0.2679283157
0.149276139
0.02823167333
0.005903601164
0.0001479029436
0.0001203847564
0.0001283590599
0.0001675486714
0.0002694558219
0.0474353551
0.1263465596
0.1830747438
0.2388390756
0.2329425722
0.2620287112
0.1875744934
0.1064422807
0.04244219505
0.01467190114
0.002621448279
0.002390830228
0.002566253182
0.002973531681
0.0009864191104
0.001366878742
0.001374360642
0.00121154011
0.001273009553
0.001079119981
0.001011593218
0.0008215755251
0.0009166071969
0.0007152377621
0.0008460462373
0.0007420165104
0.0006084200789
0.0006581269612
0.0005658844747
0.0007067092546
0.0005471397643
0.0005167073459
0.0004839832307
0.0005100214455
0.000457786976
0.0006081207385
0.0004182004766
0.0003589948627
0.0003733127576
0.0003631904819
0.0004088408013
0.0003985596047
0.0005567640695
0.0002890849012
0.0002475405318
0.0002570954066
0.0002694728604
0.000290430738
0.000350756312
0.0003704993464
0.0005569290769
0.0001981729901
0.000170906871
0.0001842050675
0.00019755002
0.0002209617319
0.0002526886094
0.0003298066914
0.0004086052745
0.0006601865454
0.0003714996881
0.0005520836047
0.0008192887111
0.00116806289
0.001468678155
0.002024749871
0.002782881048
0.0003664541675
0.0005199244132
0.0008575257367
0.02454268778
0.05642530224
0.05851634332
0.04896509698
0.0289125267
0.01095186038
0.002719494642
0.001783332181
0.0003978451946
0.0005930438485
0.001415025627
0.1283954721
0.1416773944
0.1520854941
0.1484342851
0.1184610093
0.06361790683
0.01252375304
0.002902558893
0.000543799063
0.0003822909834
0.0004983039811
0.0008466720318
0.2055098266
0.2415629931
0.2837922999
0.2932275065
0.25645069
0.1782125259
0.07197137783
0.00648617451
0.00310131146
0.000349876846
0.0003896712795
0.000466916958
0.0008709360784
0.2369721793
0.3319391412
0.4100252446
0.4290573735
0.3924391296
0.3132717778
0.1911028089
0.04457392068
0.002899170478
0.0009735318269
0.0003200906329
0.0003652711075
0.0004394170613
0.0006219475588
0.174723956
0.2907870628
0.3756589516
0.4169448719
0.4181013111
0.374100988
0.2720776987
0.1283648514
0.01489038906
0.003737108106
0.0004016420884
0.0003591168384
0.0003299671761
0.0003031489213
0.0006963551823
0.1069592277
0.3145881288
0.4444155518
0.4617317284
0.4448171528
0.4094157745
0.350427713
0.2522136845
0.1013412654
0.02373050548
0.0006812779118
0.0001161075092
0.0001164025935
0.0001397288234
0.0002372664781
0.04085644581
0.1404397225
0.2108102216
0.2847860766
0.2720443988
0.3198048379
0.2648826529
0.1578965463
0.08307293176
0.04546091072
0.007780597762
0.002237028369
0.002609350453
0.002015116067
0.0001130161059
0.001438273332
0.001551713838
0.001311796443
0.001704407796
0.001311765453
0.001148028767
0.001015830862
0.001179925796
0.0008472191193
0.0009869133558
0.0008935502589
0.0007339528395
0.0007939118007
0.0006677170156
0.0008265870773
0.0006581810862
0.0006244939351
0.0005721932641
0.0005984672101
0.0005270079594
0.0006989435634
0.0005064833443
0.0004352878681
0.0004442473349
0.0004231068013
0.0004663924658
0.0004459233999
0.0006183178461
0.0003535989549
0.0003002063498
0.0003047972997
0.000312560805
0.0003273779883
0.0003863657378
0.000394981364
0.0005945731133
0.0002323592014
0.0001945043392
0.0002069067975
0.0002135576002
0.0002369437916
0.0002636391761
0.0003387949481
0.0004063777562
0.0006177604981
0.0001816147374
0.0001857290673
0.0002447302072
0.0003392100505
0.0004134306231
0.000646999233
0.001154480604
0.0003565368157
0.0004766693068
0.0007173753368
0.002775900538
0.006519214497
0.01196016274
0.01726203842
0.01572692341
0.005756933129
0.002144808272
0.001191512887
0.0004147446152
0.0005811256732
0.001015137922
0.08952394792
0.1027805387
0.1153528879
0.1100020625
0.07680959109
0.03469180229
0.005761062426
0.002319178267
0.0004275836781
0.0004451424609
0.0006999957406
0.001420519287
0.2143335859
0.2499839249
0.2941011634
0.3048635563
0.265652197
0.1834450553
0.07030277427
0.006732987503
0.003062694057
0.0003406227626
0.0004309189628
0.0005492643942
0.001191109084
0.2937471124
0.3748028389
0.4703339731
0.4999618406
0.4555116893
0.3492089915
0.2040981406
0.0470096305
0.002549307083
0.0009426112521
0.0003458221053
0.0004355879071
0.0005929381241
0.001110172022
0.2727647363
0.4208450511
0.5303696328
0.5620711832
0.5340235087
0.4592539371
0.3370667824
0.1644386637
0.01432302301
0.003280027617
0.0003397842255
0.0003307342168
0.0004004276737
0.0004676406402
0.001617104651
0.1796421528
0.3276073609
0.4540136874
0.5119040435
0.5105255547
0.4745254604
0.3966872729
0.2494629712
0.07826177935
0.01350691145
0.001482085085
0.0003530547116
0.0003361186136
0.0003032328538
0.0003474793287
0.1001695754
0.3216700267
0.4827915771
0.5058561929
0.4814585737
0.4516345174
0.4076561594
0.3395989473
0.2113724733
0.08087197759
0.01628154712
0.0001505731977
0.0001200578766
0.0001311395544
0.0002038285872
0.02922644709
0.1282752595
0.2105672229
0.3040303669
0.3249881922
0.3643616147
0.3166242901
0.2310599561
0.1491827006
0.08895633742
0.02811045162
0.003077107907
0.001646256572
0.0007618851097
6.718727758e-05
0.001517212742
0.00168208955
0.001395321004
0.002244850243
0.001538509485
0.001276943363
0.001285268576
0.001535190583
0.000997463825
0.00114153662
0.001089605087
0.0009059413036
0.0009691620206
0.0007960153729
0.0009735450573
0.0008023180306
0.0007665250256
0.0006913731248
0.0007182906485
0.0006199032312
0.000820601554
0.000623353262
0.0005375944021
0.0005391789742
0.0005040361461
0.0005464193493
0.0005149430046
0.0007173312232
0.000444260897
0.0003759537321
0.0003725755635
0.0003744048291
0.0003820260365
0.0004429016618
0.0004434685782
0.0006580885134
0.0002927744671
0.0002421035489
0.0002528935376
0.0002532575006
0.000274974712
0.0002979851851
0.0003710144467
0.000431880403
0.0006573100496
0.0001901577513
0.0001575082461
0.0001733902003
0.0001979280437
0.0002345979302
0.0003658700299
0.0007100215129
0.0003753081229
0.0004692366606
0.0006649046769
0.0003652509014
0.0006347195215
0.001403981751
0.003191907483
0.005748897879
0.003996146583
0.001805207092
0.0005291546668
0.0004252414844
0.0005312873563
0.0008304047843
0.02777065015
0.08148574186
0.08826662649
0.07744584938
0.0450478465
0.01639291463
0.003033456401
0.002038513007
0.0003747305347
0.0004700030118
0.0006913966149
0.001100779769
0.1542469207
0.1989059201
0.2408137715
0.2565215159
0.2227806192
0.1385168144
0.0357385603
0.003480068162
0.003173986447
0.0003509454454
0.0005200196342
0.0007819732808
0.001695037499
0.2933376897
0.3882006928
0.4946832928
0.5255837546
0.4771520211
0.3628838647
0.21152353
0.04638647236
0.002497210984
0.0008721517711
0.0003521599211
0.0004931799291
0.0007522363256
0.002743940961
0.340684101
0.4739424622
0.6088840265
0.6475070974
0.6242197612
0.5354817722
0.3748585715
0.1769348454
0.01189597187
0.002799992174
0.000341579886
0.0003776800529
0.0005168105981
0.0006740099496
0.002381447823
0.273417332
0.462563091
0.59424655
0.6343826541
0.6213771767
0.5726004714
0.4770098668
0.3167376825
0.0940905858
0.01152567591
0.001173729397
0.0003003688385
0.0003483395218
0.0004065182051
0.0006146866313
0.1652805183
0.3347370108
0.4982898009
0.5712345454
0.5631071153
0.5346581709
0.4770136483
0.3818554332
0.199528875
0.05711914248
0.01043126926
0.0004035818654
0.0003234984883
0.0003294572836
0.0002302137686
0.077297134
0.3018345466
0.4870820428
0.5361000605
0.4943448322
0.4440052977
0.4059999638
0.3933769322
0.3238798828
0.1746435275
0.05033113281
0.001520236101
0.0001321327901
0.000125833653
0.0001752952797
0.007365834186
0.1026526111
0.2014414223
0.3143727219
0.35068043
0.3739135768
0.3900182228
0.2784478071
0.2124911404
0.1611200485
0.06387279378
0.01380426538
0.001218061357
0.0006378962808
0.0001081596112
0.001617224906
0.001800419445
0.001483611609
0.00276952066
0.001736411355
0.001402190402
0.001632378097
0.001946859167
0.001156546731
0.001299563224
0.001335915678
0.001137872336
0.001182368776
0.0009482478368
0.001142543251
0.0009835842031
0.0009456652996
0.0008432617272
0.000869752444
0.0007352980969
0.0009709799008
0.0007715407381
0.000671019856
0.0006635467615
0.0006096793134
0.0006512932179
0.0006073515044
0.0008505263879
0.0005637084802
0.000478213385
0.0004634340184
0.0004571346228
0.0004548302454
0.0005201304532
0.0005139314599
0.000764699048
0.0003779819454
0.000312565246
0.0003190116606
0.0003111823435
0.0003300150205
0.0003507995302
0.0004255219887
0.0004842409386
0.0007264390289
0.0002463769747
0.0001960685684
0.0002057316524
0.0002100065164
0.0002229726237
0.0002591008396
0.0003897398164
0.0004128260472
0.0004960499874
0.0007007162833
0.0001625768575
0.0001505122472
0.0002740980149
0.0007144274574
0.001534933981
0.003310642407
0.001628708222
0.0003778509708
0.0004476227387
0.0005180016477
0.0007541664379
0.001970284241
0.005835991096
0.01374407215
0.03150962735
0.01745336882
0.006325599414
0.001822782041
0.002027311218
0.0003316936446
0.0004840598098
0.0006261384391
0.0009452549121
0.1141088767
0.1359906434
0.1500891097
0.1544893103
0.1252384208
0.06903146794
0.01440135151
0.002125462418
0.003300408279
0.0003606345098
0.0005549536594
0.0008019118522
0.001117834828
0.2251437819
0.3371562617
0.4541195736
0.5051523355
0.4584124907
0.3362510161
0.170507797
0.02178129136
0.001984929168
0.0006359069993
0.000392765421
0.0005977644978
0.001031561849
0.002203874521
0.3333062374
0.4932244359
0.6446922052
0.7036610447
0.6834588909
0.5667304296
0.3898025553
0.1803465479
0.01105521925
0.002658362873
0.0003296384237
0.0004028731644
0.0006236808314
0.001094980602
0.004672414268
0.3379240396
0.5199046948
0.6670952303
0.7033752325
0.6993481546
0.6631883169
0.5553950793
0.3496419344
0.09838189326
0.006979114614
0.001012126485
0.0003262268303
0.0004263074983
0.0005611042843
0.001048839387
0.2446971372
0.4664536608
0.617917198
0.6607445175
0.6499261929
0.6271321042
0.5775357067
0.466288481
0.2477716762
0.0620571631
0.009358698272
0.0003276523823
0.0003046124939
0.0003520013075
0.0005012137463
0.1274001867
0.3138339761
0.5085451358
0.5984200582
0.5766634443
0.5376000356
0.5253071588
0.4668628545
0.3445517215
0.1479932386
0.03708664709
0.002365495088
0.0003151823356
0.000329103855
0.0001825151434
0.0430470278
0.2436229136
0.4614531728
0.5410346678
0.5003137154
0.4301482454
0.3892375251
0.3806009176
0.3944000183
0.2933785946
0.1121746236
0.02351210076
0.0001939672151
0.0001275948979
0.0001536621454
0.001036218077
0.0785823442
0.1812307345
0.299202231
0.3544356467
0.4229111025
0.4892233088
0.3881541829
0.2846996716
0.2243561737
0.1020476092
0.03650466499
0.002405138643
0.0006003497352
0.0001076015445
0.001772909174
0.001927163065
0.001589755899
0.003148361045
0.001910040729
0.001537654165
0.002030990325
0.002340679396
0.001319077143
0.00145769894
0.001630974078
0.001429589229
0.00141914766
0.001117431376
0.001324829373
0.001200307684
0.001167630365
0.001029826977
0.001049568707
0.0008718522245
0.001146897386
0.0009557860296
0.00083651045
0.0008198526514
0.0007413068409
0.0007797940739
0.0007220281893
0.001022727086
0.0007146006243
0.000610393317
0.0005808925454
0.0005637784562
0.0005477842517
0.0006200919258
0.0006090319972
0.0009107703525
0.0004900953038
0.0004101209403
0.0004090313246
0.0003878659589
0.0004011913538
0.0004205148762
0.0004995739494
0.0005620333291
0.0008493707293
0.0003293699304
0.0002596642981
0.0002656253269
0.0002628115495
0.000269567545
0.0002841214695
0.000351425903
0.0004733660058
0.0005561668736
0.0007674139
0.0002061114929
0.0001624615567
0.0001901545357
0.0003050994346
0.0005620356075
0.001622853799
0.001746648382
0.0003276231806
0.0004900135076
0.0005428905391
0.000784778646
0.0001994768056
0.0003069722544
0.0009544646482
0.00584860409
0.005194307134
0.003381794423
0.001371482917
0.002127128455
0.0003535665969
0.0005062015034
0.0006019276393
0.0008528403899
0.01171409119
0.05162160438
0.1033175475
0.09660658726
0.05533092111
0.02178622434
0.005285181012
0.001456833821
0.001192387693
0.0003761719834
0.000571275968
0.0007499111262
0.0009126524582
0.1511791021
0.2060877187
0.2826445984
0.3341498987
0.3124378481
0.2223260331
0.08418571068
0.008581398615
0.001661093957
0.0004969637998
0.000413798008
0.0006354966009
0.0009058372009
0.001354430206
0.2566967137
0.4464041834
0.6457956038
0.7236984269
0.7047014747
0.5702807236
0.3667976604
0.1377944904
0.005144268588
0.002539642961
0.0003318242087
0.0004635830407
0.0007418933725
0.001351044322
0.002833737951
0.3224041488
0.5417803705
0.7147333404
0.7577694797
0.7574730842
0.7352132157
0.5934292229
0.3621184329
0.09177947579
0.005820319317
0.0009512419334
0.0003330487046
0.0004853791318
0.0007754401638
0.002580731731
0.294971142
0.518560621
0.6800316882
0.7080186015
0.6965809609
0.696822128
0.6690281946
0.5375026082
0.2690780601
0.05508923974
0.007101862428
0.0003291101169
0.0003543822091
0.0004582493477
0.001032257059
0.1831881775
0.4310743694
0.6210995958
0.664678304
0.6363794511
0.6174821108
0.6184406345
0.5747944018
0.4215952827
0.1748444845
0.03804207344
0.001590891633
0.000282410905
0.0003038003979
0.0003650421602
0.06595172739
0.2560346407
0.4844110467
0.6066088282
0.5678256621
0.5079226938
0.4787587621
0.5164954649
0.4503298269
0.289921989
0.0942584001
0.01784828811
0.0003851043848
0.0003284254513
0.0001432888555
0.02052978655
0.1416585336
0.4015855921
0.5370767454
0.4936617068
0.4402912803
0.4266021424
0.3712909639
0.3952029468
0.3804541886
0.2162434986
0.0575649693
0.003200262825
0.0001289320169
0.0001381864709
0.0001909740227
0.04802893476
0.1205907386
0.2509823932
0.342713469
0.4279279785
0.5490041047
0.5048327621
0.3690436904
0.3185911075
0.1774436552
0.0627592662
0.01680092475
0.000522457359
9.328210682e-05
0.002035926616
0.002092094725
0.001751797955
0.003367939555
0.002077190683
0.001698993232
0.002415193053
0.002671730107
0.001489119081
0.001620591777
0.001970117078
0.001759545249
0.001666635345
0.001297406287
0.001516018824
0.001444824771
0.0014339727
0.001243805251
0.001246419622
0.001024220403
0.001340198718
0.001178410749
0.001033321238
0.001008426348
0.0008984872316
0.0009293097421
0.0008583579023
0.001231851388
0.0008978011154
0.0007735667249
0.0007268459535
0.0006932998468
0.0006592443865
0.0007411772779
0.0007282954026
0.001105028616
0.0006277733355
0.0005372764881
0.0005259178061
0.0004857019735
0.0004898747574
0.0005075024358
0.0005953071979
0.0006689242001
0.001025551854
0.0004381366347
0.0003475991524
0.0003492093295
0.000336964946
0.0003372841646
0.0003426266665
0.0003908116741
0.0005557773316
0.0006504371908
0.0008901646641
0.0002845315159
0.0002198841352
0.0002274579365
0.0002355391289
0.0002905755511
0.0008248651662
0.001895478603
0.0003727657812
0.0005617117615
0.000603868298
0.000847323806
0.0001750046645
0.0001379140203
0.0002539412744
0.001920545572
0.003681607624
0.003194618368
0.001077582766
0.002517865024
0.0003989906472
0.0005499001503
0.0006254654365
0.0008709391194
0.0005372758774
0.001793575087
0.005638948508
0.02195493334
0.01112395649
0.005556494793
0.002896006838
0.001263708768
0.0006769519101
0.000408257166
0.0005916750654
0.0007213553404
0.0008090173388
0.03509041084
0.1406524714
0.1656858525
0.1728442409
0.1575337891
0.1007357844
0.02516959764
0.003382832541
0.001583845547
0.0003497868363
0.0004362461681
0.0006485374342
0.000774588887
0.001035111919
0.1664575042
0.2928397898
0.5006682382
0.6345955461
0.615213121
0.4631553081
0.259296892
0.0618636774
0.002403474117
0.002503674137
0.0003441175309
0.0004899262151
0.00073354975
0.00107848969
0.001519922952
0.2406796403
0.4951250694
0.7302293512
0.7973118624
0.7995250622
0.7735117213
0.602724683
0.3337821997
0.05104119084
0.003188935175
0.0006786338047
0.0003696250874
0.0005720564969
0.0009718770381
0.002020558047
0.2739537246
0.5360221346
0.7239980839
0.7476633403
0.733009077
0.7419207897
0.7422565148
0.5697217424
0.2748526435
0.05020997577
0.006345147258
0.0003206893241
0.0003878071634
0.0005831250057
0.001335700441
0.2151630234
0.4725281909
0.6777392133
0.6956011789
0.6617822601
0.6527502341
0.6886924795
0.6652624224
0.4669921015
0.181872772
0.03115548089
0.000760533419
0.0003081822756
0.0003714033947
0.0006518197933
0.1070057276
0.3491763362
0.6013559549
0.6683854506
0.614474877
0.575101745
0.5828691037
0.6202303264
0.5495530901
0.3375365401
0.1054671656
0.0167219575
0.0003103891709
0.000274619109
0.0002494577385
0.03446173793
0.171454459
0.4219406538
0.6024772732
0.5682576154
0.501778928
0.4852128808
0.4689039436
0.5038995809
0.4218065268
0.2077368137
0.0475646836
0.003622469453
0.0003253466212
0.0001227778737
0.002736228983
0.07825390898
0.3100242852
0.5150873039
0.5182839365
0.4224997289
0.5152446699
0.4575402401
0.3609192996
0.4250250387
0.3239941971
0.1195462744
0.02362082201
0.0001747655561
0.0001274601305
2.146726301e-05
0.02478668454
0.09027709443
0.2032647009
0.3166723189
0.383237596
0.5763205422
0.8535239172
0.4607846392
0.3594190192
0.2144490491
0.1008062617
0.0396734167
0.001314945986
7.222456883e-05
0.00246348147
0.002343271121
0.002008196809
0.00353709662
0.002251932474
0.001921306461
0.002721282591
0.002949241328
0.001679802951
0.001801371364
0.002338205042
0.002081233059
0.001915395073
0.001483683452
0.001714426276
0.001704471294
0.001742099585
0.001475362524
0.001451265451
0.001189728221
0.001547614742
0.001439037245
0.001251618772
0.001221566601
0.001072578149
0.001092019968
0.001010786002
0.001475826875
0.001114454485
0.0009656138416
0.0009006882164
0.0008448749011
0.0007866696432
0.0008799702221