/*--------------------------------*- C++ -*----------------------------------*\
  =========                 |
  \\      /  F ield         | OpenFOAM: The Open Source CFD Toolbox
   \\    /   O peration     | Website:  https://openfoam.org
    \\  /    A nd           | Version:  12
     \\/     M anipulation  |
\*---------------------------------------------------------------------------*/
FoamFile
{
    format      ascii;
    class       volScalarField;
    location    "0.3";
    object      omega;
}
// * * * * * * * * * * * * * * * * * * * * * * * * * * * * * * * * * * * * * //

dimensions      [0 0 -1 0 0 0 0];

internalField   nonuniform List<scalar> 
110452
(
5.265895643
1.541945337
3.727302619
7.790942899
1.451381381
1.554958332
1.593565306
3.503311784
7.644195866
5.747424515
1.379804854
1.463496575
1.483446398
1.598421804
1.705748472
1.580616054
3.251599837
5.999752715
11.98536378
2.753211715
1.318178099
1.389747968
1.371086823
1.50721947
1.542338673
1.491545048
1.751810312
1.739858694
1.807719057
1.620201297
3.075835912
6.260345782
11.03839162
10.74670881
3.445247702
1.266216129
1.356152057
1.34048225
1.400591623
1.484005369
1.389279638
1.661223607
1.5624025
1.628536214
1.529292676
1.927566934
1.941565418
1.861555934
1.890585764
1.706990871
3.270345526
6.575634174
8.908173346
15.52837944
6.689659254
3.267121145
1.215069938
1.294422006
1.305564194
1.35822768
1.417608128
1.353899086
1.515220346
1.509852592
1.565922869
1.419257486
1.851626267
1.745972498
1.663754732
1.72278718
1.61403283
2.086223334
2.153436255
2.096671133
2.017061167
1.989344695
1.737421168
3.176561754
6.403126292
8.642232543
15.26075135
14.13802508
6.63122474
3.388414517
1.174437679
1.255175594
1.267460742
1.305018823
1.387414818
1.33179219
1.455120588
1.426560436
1.484948016
1.373534966
1.669811806
1.690494544
1.602434658
1.661992409
1.479466599
2.02739501
1.938783968
1.896213422
1.797851731
1.831531541
1.641348548
2.174663672
2.448729985
2.332296426
2.328517837
2.145196499
2.065817142
1.760139719
2.083289904
5.682066358
8.881612023
13.04356915
17.10050911
9.890150607
5.906181837
3.231959665
1.164276401
1.237265479
1.228225093
1.279842001
1.328525788
1.293502818
1.370548441
1.392719251
1.451473635
1.354016998
1.591370298
1.567652015
1.50662799
1.558882581
1.417107272
1.850087965
1.87694925
1.838367175
1.740278132
1.786943311
1.49994061
2.147395826
2.253053934
2.124737943
2.105986665
1.945198114
1.902917668
1.680900895
1.90352593
2.78590203
2.880051473
2.888402123
2.684352002
2.322695898
2.166220818
1.715577659
2.131733899
6.958012042
11.97189399
16.48082986
20.92143512
15.97897099
9.444763404
5.925148604
2.861514029
1.143889965
1.187231494
1.187724533
1.270106128
1.289440828
1.259048124
1.325299703
1.335024473
1.393809261
1.314259402
1.455873387
1.518149221
1.465078108
1.518332987
1.374320947
1.766632939
1.699328024
1.706371735
1.628222608
1.651355813
1.435913728
1.975333591
2.209382343
2.073042696
2.066499593
1.902869094
1.869648365
1.524061636
2.071858851
2.580429333
2.584772521
2.544382166
2.410463703
2.129725286
1.991339074
1.634444525
2.199975489
5.131124398
6.712917469
7.914123269
6.730665614
4.695390649
3.408925418
2.056783154
1.642616224
3.675728011
14.42321314
25.55414802
35.29934265
38.69475303
34.16671288
22.17177335
8.455348949
6.195642237
3.205578614
1.133338353
1.152595724
1.152101634
1.241081754
1.214550274
1.209883795
1.30284399
1.306121499
1.357812652
1.281710875
1.352675032
1.426458213
1.386058041
1.450991019
1.350071149
1.602062676
1.621598419
1.648941028
1.580438799
1.598018792
1.372754974
1.876103033
2.011376933
1.908923906
1.925701505
1.763766098
1.713128979
1.462628209
2.12026664
2.57064969
2.565782051
2.524015908
2.406787317
2.102903929
1.977527952
1.458683077
2.330272905
4.706232493
5.472943474
5.675970546
4.890404328
3.94310192
3.123874046
1.880108614
1.557862185
7.041801525
19.3770385
32.28225396
42.42140541
40.82396588
27.1128135
14.8736587
2.758965545
1.904848133
1.57249268
11.10866465
35.55985689
67.59066437
96.44918035
105.3369744
90.96156709
73.66882821
17.02592737
7.988323671
5.454613071
3.026799465
1.129331176
1.105075774
1.124897244
1.207859021
1.163261782
1.172275144
1.259071537
1.238946972
1.281165639
1.220127442
1.305424847
1.381774822
1.347043805
1.412079159
1.302634646
1.522236595
1.466157357
1.523698073
1.479201804
1.520980118
1.35068406
1.716630435
1.922935719
1.836300403
1.865069157
1.707695215
1.650824003
1.365471337
2.139316431
2.400264434
2.398090625
2.366167438
2.244999442
1.947057486
1.810744838
1.39396723
3.319405218
5.332475596
6.006724824
6.022953907
5.060251312
4.068583928
3.157873937
1.87069524
1.37358953
10.03385396
20.05964941
27.57706163
29.78172141
25.10392286
17.74474225
13.26194502
2.538244888
1.7203078
1.485297075
29.81380552
70.53213234
103.2279078
137.9271638
141.1449887
112.6125913
78.96148016
9.005232995
2.128031212
1.789234375
1.505837936
32.45583758
102.6592569
153.8487866
223.1529878
291.5289781
244.7086121
215.4829831
57.38676454
11.00701762
8.234202535
5.906347534
2.928726062
1.129593899
1.082624009
1.112042045
1.152346171
1.091836007
1.129473506
1.22890381
1.191419886
1.237341826
1.186499344
1.231030611
1.298855001
1.259085217
1.322338348
1.24663956
1.423152755
1.393607861
1.462598754
1.429984389
1.475450824
1.293710206
1.592266367
1.714525682
1.65432424
1.705106191
1.582759664
1.561764994
1.328881955
1.939083468
2.314728907
2.322941748
2.296034256
2.180646376
1.887196828
1.742689888
1.30870002
3.826998301
5.563243172
5.866018782
5.642763245
4.644767821
3.82833174
2.965184329
1.708189348
1.308391917
18.99210443
32.99916424
35.45080344
35.10699594
27.93349229
19.30286985
14.25504978
2.530527466
1.698648473
1.313780342
47.97597153
86.74615575
107.7132789
118.9824732
109.8757601
79.78442363
62.44548067
8.359756853
1.933313268
1.605196723
1.418173485
92.45647339
208.9350507
258.8725994
296.7874604
289.3909895
245.3912272
186.842226
47.70764256
3.471493104
1.921388204
1.684246371
1.446036054
66.82000801
209.6618767
334.0849745
452.0545839
574.0079547
500.7912471
455.7821925
178.0303772
22.11945887
10.13717278
7.913273635
6.056490017
2.407892425
1.143283968
1.06031411
1.106134858
1.104797963
1.057655293
1.108420008
1.17306473
1.109599452
1.160674416
1.128622352
1.182872262
1.257558654
1.213962115
1.276707739
1.195182787
1.336055792
1.261881427
1.336986054
1.322563078
1.374472927
1.252242828
1.509992901
1.615018039
1.56542715
1.626673585
1.522093188
1.512948468
1.279118989
1.760247689
1.965492271
1.980996477
1.975535762
1.927580833
1.705483913
1.619327355
1.27275631
3.807892855
5.198535128
5.508261208
5.333160122
4.44583603
3.73429764
2.920780661
1.642437508
1.23058461
22.67318288
35.68112465
39.28297985
35.02777895
25.64614763
17.88175971
13.75679182
2.321622661
1.536726983
1.25524042
88.80621071
143.071758
161.1809033
157.8236545
128.2540179
90.20688585
71.09694415
8.739880334
1.901153018
1.576744552
1.277579044
171.0315588
251.3845081
286.099262
306.8821981
280.9942981
219.3305427
168.0381852
44.37008428
3.240211994
1.733027408
1.506489326
1.357504916
230.1573856
391.6946315
437.0575318
435.9667932
416.9493505
355.1541249
266.9788911
158.167652
13.39460148
2.357609057
1.781476934
1.618495002
1.377155371
105.0999701
417.227416
602.9565257
711.5392982
839.140449
801.4343015
716.0024615
450.5385032
65.70566564
13.86967996
10.80378617
8.751634086
7.870159502
3.681693213
1.166133827
1.052223242
1.104734901
1.033482881
1.015623647
1.083820211
1.133971827
1.0617561
1.124680545
1.101988419
1.113675489
1.17850584
1.125688208
1.187743265
1.139134262
1.246577697
1.198567583
1.27591714
1.269671672
1.323643836
1.18293115
1.364653942
1.423396595
1.391529781
1.464304526
1.393896316
1.401654216
1.227630672
1.621298504
1.814583625
1.832627142
1.836894545
1.812931338
1.621793186
1.560923577
1.231404593
2.284786265
2.926891213
3.114484323
3.28103859
3.048791735
2.882611769
2.4365702
1.527986094
1.196835172
20.20885806
30.84940765
33.42551572
30.64703508
23.24822652
17.00683125
13.68351469
2.246636524
1.472112226
1.190610262
100.6643696
159.9308179
176.4795559
167.1061556
130.4583686
87.28514854
72.27658884
8.363083109
1.730980382
1.430516893
1.232175911
244.7547979
371.1488203
410.0049513
401.5959136
338.8341219
242.8354302
186.640033
49.47819602
3.291297457
1.694890601
1.469814937
1.268115024
311.0810398
446.2885617
511.6717105
513.4317104
451.3729004
352.6170083
249.448016
143.0542645
12.53773138
2.149074698
1.598261965
1.461299485
1.291714861
298.5961861
466.364558
540.8808249
555.1695304
528.5569724
466.6404093
368.9091621
244.5139367
65.06241685
4.550232514
2.052544214
1.699249356
1.54556857
1.382867403
115.8901416
581.557463
842.0466964
984.1670025
1085.830884
1096.415238
982.7863003
763.3418466
184.997526
27.73220604
14.38004489
13.9742385
12.59076411
13.18328802
8.518365396
1.171772141
1.050766574
1.109870789
0.983881799
0.9984540763
1.072684849
1.066780751
0.9896901151
1.075625626
1.066109638
1.075953
1.138626519
1.08302075
1.145677232
1.095759986
1.172960941
1.097227056
1.168754093
1.171432128
1.225928056
1.141147888
1.288506183
1.33274947
1.30921544
1.386253298
1.33198306
1.346620612
1.163564285
1.431227238
1.558602819
1.576169674
1.588305403
1.594838739
1.461572347
1.427348922
1.181522294
1.868677671
2.236098794
2.355377108
2.60387693
2.54307744
2.51966725
2.214019816
1.475131065
1.161446687
7.043078672
11.43024826
13.43781578
13.65777914
12.03155874
11.10946169
10.5768571
1.949983736
1.375310642
1.16146107
87.8210252
145.4375482
161.1008229
149.2077682
117.0324449
82.43722404
71.37315856
8.290312216
1.662843757
1.372372475
1.191606306
254.0088104
402.4205503
443.6864209
427.514745
353.9479612
248.5061215
192.2514961
50.19038972
3.094557148
1.545075413
1.345005067
1.243096422
391.1076244
589.7207665
662.2444328
646.4757874
559.2785894
416.6262513
274.4247825
159.8317762
13.74987836
2.128061712
1.551922165
1.42383308
1.235287857
374.0409224
572.8867393
655.6419938
662.7129463
599.3012045
492.7333888
362.2407935
227.0104259
57.59716688
4.177232905
1.844665958
1.525559749
1.396710331
1.292793425
324.5526949
507.0751486
621.5513088
660.3202495
642.1215475
579.8242563
482.1513048
346.1649038
189.7089485
22.55517517
2.577809526
1.93586274
1.626502464
1.5420715
1.345807422
113.9031579
635.7068333
993.0456833
1245.29272
1357.375621
1424.510203
1312.72647
1031.493631
460.6788629
73.61349411
20.26309351
18.86320631
16.4831936
13.17416713
7.479076746
1.170501682
1.063181158
1.112284456
0.92767531
0.9903007405
1.061643891
1.015371137
0.9561966112
1.054056138
1.049477718
1.021309783
1.066078528
1.016748789
1.082644793
1.061524964
1.100945628
1.051047596
1.118436518
1.124798857
1.179649573
1.083907522
1.186751158
1.189776321
1.178291957
1.252343799
1.222033669
1.242408734
1.115260842
1.333382595
1.436165139
1.455404281
1.471921883
1.494067203
1.385962946
1.363692039
1.127150412
1.580052432
1.800105792
1.825723653
1.981724428
1.927921476
1.934459463
1.781109307
1.362222355
1.115662241
3.011698289
4.660893158
5.814484737
6.899340737
7.649036017
8.605694958
9.12125026
1.806658577
1.332224643
1.133515751
36.04689681
63.32483507
77.03998693
76.75140141
65.81923647
56.14696594
59.96617944
6.467732809
1.521314194
1.289033963
1.172465335
225.4742634
386.9835755
444.2617959
424.1941763
342.4788038
236.604618
194.384025
49.6907102
3.020038082
1.484212875
1.294976113
1.231849194
405.5401743
642.4630033
723.2976802
705.917308
604.879141
437.6928929
281.0354818
165.5577308
13.81837134
1.96555656
1.422303694
1.331389674
1.222123933
471.8783045
702.6083526
791.1934909
798.9087157
735.8753738
609.1528554
425.023643
252.2598345
69.94656783
4.367713032
1.80232897
1.473908849
1.343326682
1.236873347
392.0184848
615.0534199
729.6296191
764.3195455
721.9984319
624.1570841
496.3969352
335.1260155
164.7608065
18.42073139
2.327879542
1.718553609
1.445402156
1.388882633
1.257942589
326.0511642
525.2386298
676.6418862
762.0625516
765.6240214
705.7135261
596.653054
465.5387168
290.5850617
95.40457778
6.334604176
2.217118349
1.812606699
1.607991945
1.459500258
113.5983395
644.86016
1067.084466
1463.709887
1663.069137
1753.889063
1660.687628
1387.150072
758.1995927
183.7784669
38.42407523
19.69765227
15.17697048
10.07256678
2.857697282
1.159337086
1.067977313
1.108377212
0.9034228078
0.988065816
1.054339736
0.9480926868
0.9172311646
1.031183131
1.028121907
0.9880948339
1.022774753
0.9866188754
1.053484964
1.027434287
1.062271469
0.9904470587
1.04413483
1.054311249
1.110118928
1.055005341
1.123632235
1.12481447
1.118112624
1.189321215
1.170124034
1.192952619
1.060121731
1.190187464
1.258166446
1.280452121
1.299900876
1.341871045
1.263618088
1.248565738
1.078201322
1.451137635
1.599184118
1.589044375
1.709296503
1.676149287
1.699926256
1.59559517
1.306726573
1.067874517
1.79170901
2.410975753
2.932477517
3.755080986
4.14582296
4.997307253
6.088247275
1.541633449
1.24129872
1.093876173
11.67439675
21.59423463
28.46823579
32.78274843
37.27377864
42.93788704
53.85674507
5.565971699
1.453762844
1.252324074
1.163266399
129.0492384
251.862611
313.7235327
313.7381252
262.4886866
190.3654085
185.6359351
40.06418362
2.557960632
1.374580294
1.22815136
1.225158938
376.6154601
654.7358938
747.7687612
731.3293056
622.7551666
443.2392004
281.3574136
167.7337162
13.74987636
1.89879138
1.368670925
1.294720421
1.218791256
491.1890148
762.7388382
858.5974884
870.1221295
804.8681831
662.5592886
445.383669
258.8347075
74.32216169
4.221471817
1.659177298
1.366665803
1.270572166
1.190373958
495.1326926
729.1766714
838.1154988
887.8285488
866.6777298
778.4314257
621.878538
393.4661925
191.5468703
20.62270392
2.299140716
1.664125106
1.381535697
1.31453393
1.219873953
388.3102088
616.0530451
760.3795959
840.4495548
841.8814814
764.0043918
635.4339453
474.8123771
274.1921502
75.17478963
5.062732918
1.95993071
1.593129156
1.431285038
1.354774499
308.6342321
518.1176159
701.9695569
854.3253146
910.2984027
849.1926914
725.2049757
582.9837221
415.3817776
232.1052202
39.30513207
2.780238583
2.013110898
1.726263465
1.446515989
91.26924351
608.496482
1066.178604
1549.967546
1948.098769
2233.995071
2231.14288
1749.011969
1083.041011
402.7121176
100.3923313
21.9352036
10.96140443
6.44082068
2.333059978
1.134301599
1.066385128
1.096633055
0.8920184251
0.988960267
1.044233135
0.9073729002
0.9018914525
1.020299249
1.015998101
0.9407262534
0.9563284983
0.9489038255
1.014792562
1.008679176
1.010149881
0.9623719868
1.009391122
1.021591276
1.077737056
1.015510953
1.075163711
1.042650064
1.038427188
1.099785928
1.094710608
1.118649246
1.028824152
1.125927292
1.176178951
1.19791307
1.219583887
1.269490894
1.205972262
1.194648975
1.031466827
1.27133358
1.361973863
1.385091122
1.471363306
1.45869166
1.467426419
1.377277503
1.202672161
1.021702319
1.495458201
1.79198878
1.987079349
2.423001385
2.736409802
3.576466425
4.779270126
1.42961339
1.195575423
1.052220869
3.152282448
5.532049834
8.801789521
13.40242949
17.95209038
24.46025404
38.28566431
3.683840676
1.325218598
1.176044997
1.133874953
44.5674448
93.21132982
127.079881
139.2288991
142.9185228
142.8634307
178.9136837
34.96948833
2.300450637
1.323594846
1.199138949
1.226047662
266.7761768
549.7619855
692.2837213
694.8229991
577.6565269
385.5870016
259.024423
159.0049138
11.14313543
1.701774481
1.279762121
1.252487995
1.213414261
470.6659298
785.0077352
892.7509709
918.5680632
847.8418758
685.7995863
450.3608415
260.5252626
76.04208527
4.16700348
1.598116629
1.321231996
1.239756054
1.168174474
515.9542118
791.301667
899.8467744
956.5343873
945.6813501
857.7566752
679.5184036
410.6153787
200.3535632
20.7137763
2.122589034
1.533875448
1.29784627
1.241299389
1.193576102
484.5565649
717.9526033
845.9439465
946.6984723
983.8910231
935.7087702
804.5820731
598.566691
315.5520575
85.41426456
5.10326346
1.910352152
1.530117499
1.356842574
1.284125734
368.458919
598.0499264
758.5304232
897.8830821
973.0480747
940.3202451
820.590821
629.8562526
418.0444597
187.9543576
24.95730394
2.440046097
1.782246802
1.541374832
1.344707368
265.2735677
490.2046513
685.0464433
906.8883281
1109.452469
1109.150049
933.7433599
712.6381374
528.3595949
352.2171451
140.2933384
9.336541019
2.245400936
1.894728328
1.529784771
45.11577357
512.6473891
1002.600201
1533.950276
2182.86789
2944.513445
3009.573102
2376.578385
1442.930041
730.6020523
242.7919685
42.57482448
9.761159146
6.086252006
3.266462088
1.095636835
1.055629447
1.074958437
0.8868282966
0.988322802
1.029695782
0.8817516185
0.8916786457
1.007580181
1.000603994
0.9165944649
0.9231016474
0.9320555815
0.9964173733
0.9839101127
0.987057527
0.9272190892
0.9624551781
0.9779094266
1.033406915
0.9959960769
1.029633729
1.005295925
1.002225819
1.058224619
1.059858576
1.083846275
0.9895114185
1.047795633
1.082730149
1.094786469
1.118454516
1.161115296
1.124551913
1.11496449
0.996231002
1.185101688
1.235248784
1.234239741
1.318552569
1.359828907
1.365644172
1.283984732
1.153794663
0.9818731461
1.335233854
1.547796722
1.588143009
1.806299038
1.95279374
2.394313843
3.174995137
1.280898215
1.108276237
1.00889422
1.676785083
2.225844472
3.637243885
6.465714542
9.572394746
16.06113485
30.79183193
2.898416672
1.264104219
1.136936729
1.107352385
10.27308897
22.66465665
34.79387832
50.41904323
73.68791372
104.2678244
165.0352093
22.61731902
1.794532414
1.227946356
1.140335027
1.214777503
112.7780748
275.1855062
410.8192733
446.5772963
389.8057079
279.2602521
245.7881354
152.4114161
9.474379083
1.605326423
1.238669752
1.235759848
1.213103635
370.960934
745.6259344
900.7709841
933.6237303
860.4680456
665.7628614
390.1451011
245.7957582
65.55901524
3.489715388
1.465274008
1.25249404
1.204677246
1.156673669
498.8551958
818.8040152
943.4435267
1010.680876
1001.96387
906.9700815
704.6354952
411.7393509
203.6324728
21.05303846
2.04935087
1.478223951
1.260566488
1.206232663
1.170975283
502.74604
778.2214744
900.3750662
1005.612698
1062.782472
1030.514284
890.7011056
652.1203292
326.0773617
85.15331484
4.618837568
1.746710267
1.415300095
1.269261249
1.234580034
447.5659105
690.7648045
826.4117417
977.1457898
1098.785005
1118.764086
1011.042715
803.212611
514.8960999
203.3533924
25.02154304
2.39375785
1.713234841
1.471422425
1.269868961
323.7287201
567.0441843
722.9202641
915.2619843
1121.392595
1180.816507
1091.493014
852.4115578
573.4657542
341.0431987
104.1252492
6.658640102
2.019949988
1.69583273
1.422266303
159.4985424
449.4760539
633.0416384
874.8650818
1275.314741
1695.735777
1539.539168
970.1107668
659.4490983
463.8756213
286.423547
55.66076608
2.881442249
2.108385075
1.661441622
17.70834351
268.829564
868.9866599
1416.20623
2165.967591
3443.509443
4439.725411
3392.595958
1949.318653
1071.070502
559.5529202
132.3361126
14.67501814
6.269329165
3.511995029
1.045958143
1.032927672
1.04314047
0.8838682147
0.981295732
1.008226163
0.870686954
0.8867368583
0.9966204366
0.9828131412
0.8946985483
0.8942582934
0.9126140149
0.9705587337
0.9695808095
0.9623553575
0.9106736451
0.9409434282
0.957721342
1.012030132
0.9684194918
1.005884788
0.9611127207
0.957871931
1.003400963
1.012974358
1.035435851
0.969326134
1.011557189
1.0404693
1.048199926
1.070828698
1.108986799
1.086603154
1.07803574
0.9635618425
1.096947629
1.123006711
1.155315135
1.22110736
1.226574662
1.231967669
1.160679366
1.081132433
0.9464288246
1.214207281
1.384601103
1.372581698
1.491407091
1.573041306
1.879302218
2.470216654
1.210386181
1.067337113
0.9741341996
1.465185997
1.689907025
2.335578991
3.790508771
5.517879094
9.389391122
20.42202742
2.038431398
1.164154729
1.061218024
1.064820527
2.204688543
3.92499661
7.771025544
20.15920797
39.80833152
71.6262497
148.0478279
16.82860451
1.589948878
1.181415709
1.106329864
1.201721597
30.4356097
79.65946342
127.8196952
159.7297982
197.4624967
213.5109551
241.0250626
130.5159079
5.808679421
1.425626403
1.16203402
1.206015352
1.192854028
189.7232846
521.9243298
776.2564707
849.4162892
756.1311057
511.5553808
301.1127645
239.7663965
59.23283344
3.017285234
1.403923237
1.220902527
1.188880938
1.123909721
406.538674
808.240115
959.5582706
1032.28429
1022.62778
922.2071651
687.1138685
347.9730451
195.5184334
17.0476657
1.811956695
1.376353994
1.209241186
1.170147621
1.159709852
482.1780514
806.123379
945.7845391
1050.263609
1115.918364
1084.957516
937.681375
673.0874191
321.1380766
85.23123744
4.595210996
1.676810095
1.365359508
1.228597684
1.201891927
459.8469572
744.7959699
871.4796659
1017.65959
1165.072766
1216.814579
1109.808327
888.8082028
550.6931932
194.1228884
18.36117432
2.186648766
1.564296367
1.357812811
1.236644885
377.4157388
652.9796659
779.5781148
963.0208222
1194.805361
1338.129886
1304.412637
1046.261936
724.9396063
396.6670874
109.1124054
6.062635138
1.95178032
1.623508953
1.325926163
228.3165813
526.1535225
667.3294524
856.1749103
1218.460639
1582.542575
1556.742387
1219.012458
795.8950013
482.6742869
256.3856731
38.78020457
2.50051941
1.895981512
1.550155132
48.55042408
408.4872206
572.3055091
770.8798276
1227.866179
2282.133833
2924.2864
1879.027143
903.3588425
581.7147977
391.2556547
180.7733272
12.6270452
2.317192004
1.82851781
4.780879021
135.3829595
634.4110575
1202.344216
1902.300646
3372.036096
5868.707694
5450.256362
2688.926976
1464.252532
885.5181288
350.760201
41.74826094
6.166137857
3.481862831
0.9915320443
0.9979290034
1.00396907
0.88087258
0.9675910362
0.9814790285
0.8647312638
0.8823765002
0.9793888195
0.9626745104
0.8847348842
0.8821425106
0.9031254511
0.9572815946
0.9473846775
0.9413383162
0.8903128251
0.914692239
0.9311231522
0.9803992759
0.9535418454
0.9826750694
0.9406823553
0.9372606769
0.9779427834
0.9904293813
1.01213225
0.942201846
0.9698260925
0.9915623888
1.001462698
1.013957006
1.061162654
1.035143749
1.027417929
0.9400564476
1.051902511
1.065838148
1.068811245
1.124877524
1.16059665
1.173281982
1.108596565
1.047164834
0.9194046585
1.120493116
1.228329858
1.241393974
1.337900645
1.384656326
1.511136438
1.777370045
1.123000246
1.005552384
0.9367213825
1.286908071
1.457202161
1.720112849
2.370111941
3.291410388
6.4146769
15.48722062
1.681407962
1.117266793
1.025396596
1.039025147
1.488863663
1.918629921
3.611691695
11.334723
24.15181313
44.45434031
121.766793
10.13136686
1.375011214
1.099389744
1.040911814
1.170519072
4.7115374
12.31756805
22.91726757
44.58730135
110.492545
175.9413074
248.6369725
104.4913652
4.279687069
1.345226799
1.124104172
1.186307524
1.171045234
56.66046413
189.7061671
343.8704805
449.3234212
420.829149
309.6662749
258.0430525
239.3672579
38.82605185
2.164101581
1.288587567
1.162681011
1.148988684
1.089722887
221.2510671
659.3477417
906.0572815
1005.362431
993.3543955
853.6464475
535.0502142
277.0698259
190.0648482
14.60551871
1.694127406
1.329413868
1.184624626
1.140705906
1.126926667
389.0954418
804.9154074
966.0562353
1070.284138
1132.386447
1096.87466
949.3331148
637.4749152
274.5101092
73.48745878
3.772147787
1.529842198
1.283630136
1.176854455
1.186230766
432.4960044
769.4509151
914.6013535
1049.228018
1193.106182
1260.982258
1155.537054
928.8649462
561.3330759
168.8246604
16.8047041
2.107371696
1.500038369
1.308373639
1.206374697
381.2721649
698.3160038
817.2256531
982.7461245
1219.098507
1415.921983
1399.13316
1140.60308
794.6561416
410.6894483
79.08111849
4.085331731
1.771920253
1.477352301
1.284928878
269.5530594
604.5047362
722.2324945
882.9057174
1216.924431
1589.561988
1703.020471
1423.727599
969.9333768
591.8911466
276.9956073
37.94891983
2.391867928
1.819971441
1.410783957
80.35856084
444.8187313
614.9755592
747.9457958
1132.752508
1926.911312
2403.880344
1940.351831
1207.49232
651.9045856
392.1203794
146.3329437
8.392190307
2.102197947
1.721595263
17.03114764
279.6924525
512.8275416
668.7736087
970.4720156
2301.27794
4108.406182
3894.789437
1706.020285
778.6439027
485.7963395
301.2550393
58.57452083
2.90663325
2.01167871
2.606247572
61.67460757
395.2022223
946.9384523
1569.768528
2687.894931
5960.529211
8067.924252
4738.262646
1930.438894
1157.881618
614.8891219
126.0620679
10.48184991
3.276811155
0.9365355928
0.95558389
0.9605274912
0.8738047587
0.9458201881
0.9509494098
0.8607522976
0.8770481047
0.9575032965
0.9385152407
0.8745628665
0.8727452276
0.8895560076
0.9346973847
0.9304867534
0.9300413357
0.8807809144
0.9026120199
0.918231092
0.9643182969
0.9302326006
0.9648812366
0.9165362246
0.9127025374
0.9448314499
0.9585184274
0.9774764409
0.9270022348
0.9503550402
0.9643258784
0.9661550707
0.9867870711
1.019071313
1.010508752
1.00305801
0.9201001554
1.003099178
1.005641163
1.029365257
1.078365215
1.100706213
1.103221398
1.048809496
1.000360822
0.8933512571
1.071840547
1.156351363
1.132499721
1.230875936
1.268824418
1.346080384
1.484724933
1.082534578
0.9766774021
0.9154715053
1.196900687
1.322941672
1.414997115
1.718080039
2.256160674
4.135743106
9.67807134
1.394118141
1.050472245
0.9696229747
0.9969261703
1.369378108
1.611378449
2.460321989
6.737909898
13.35757381
30.67726188
103.103351
7.116601175
1.285089383
1.060533876
1.008939951
1.142965364
1.617866986
2.28535465
4.666603353
20.1061345
75.47470491
151.1430414
261.2144948
75.27855672
2.695187307
1.224108788
1.053847452
1.146246454
1.127150695
9.666944962
36.45583332
73.9920519
112.1879342
178.7795166
221.9177982
249.856233
251.4810415
28.3642685
1.813278493
1.233199233
1.133315778
1.119093472
1.042843775
70.58648078
290.8616956
623.1734098
822.84836
815.0120289
590.1255956
327.3587236
250.2750708
180.7430653
8.947928392
1.483958005
1.242033301
1.133838382
1.095995699
1.091740301
205.1725709
689.9280098
939.5044309
1058.789007
1105.126988
1056.814139
882.4848212
466.7927991
247.6649329
68.13682438
3.304778623
1.46193844
1.245218382
1.151408609
1.145447623
335.2511411
768.1835048
936.4465241
1067.310753
1187.22098
1251.310815
1144.883251
931.5574722
496.6648842
125.8757749
13.03047339
1.861123038
1.38815183
1.240395319
1.1654826
341.5531994
717.2980165
858.160735
1000.138839
1213.851851
1415.626472
1406.50594
1177.368578
823.7396207
395.053965
57.83670384
3.672216945
1.692143858
1.414574505
1.239586728
268.1602175
639.517327
757.3774632
888.4418718
1198.094042
1565.640351
1737.252647
1492.522683
1043.340659
638.0872312
267.5612854
20.03065018
2.108901615
1.638022785
1.352392805
133.5799154
528.5797518
670.6939169
775.0111663
1086.744436
1749.063809
2225.907865
1998.076584
1373.301311
776.7149834
454.5857398
152.5645221
7.451646527
2.033348994
1.546859741
24.29052959
313.9361844
559.3977331
657.4244153
888.7406848
1856.916554
3088.68118
3216.29732
1960.262634
957.4689562
504.1498798
292.6249473
47.08724348
2.576411502
1.921227079
3.973484364
130.323469
457.661077
587.2781794
751.4529003
1566.693615
4220.318257
5925.034938
3755.370788
1226.365406
612.8602014
393.0798191
175.370149
11.54682708
2.142125121
1.968882586
17.11094166
199.5914441
706.7187858
1247.760291
1960.599231
4465.73308
7567.67039
7592.933063
2636.441455
1399.749492
809.0966672
311.2707693
33.87475228
2.082842719
0.8842768702
0.9103601631
0.9164604488
0.8608032523
0.9179759671
0.9180906567
0.8564572589
0.8680767058
0.9305077238
0.9132098379
0.8675954673
0.867543211
0.8803290232
0.9192293486
0.9074254757
0.9148218468
0.8687461033
0.8869572611
0.8984121525
0.9371114747
0.9148128133
0.9553437834
0.9045618436
0.9008553733
0.9291692202
0.9426804547
0.9601899543
0.9076960298
0.9266433728
0.9446092785
0.9465450676
0.9529374807
0.98673046
0.9744386562
0.9674245833
0.9008127374
0.9793807747
0.9775332337
0.9863742123
1.023599176
1.055034037
1.069470823
1.020330641
0.9779475897
0.8791098074
1.021876346
1.086449779
1.079151304
1.151064593
1.198895672
1.218817885
1.241836557
1.030331765
0.9373681131
0.8881538229
1.110979964
1.192552347
1.27424268
1.419813441
1.694532519
3.051543012
6.968693607
1.270361848
1.019238583
0.943500611
0.9769617538
1.210298995
1.404319284
1.766371237
4.113683063
8.444311776
20.39341983
79.55012059
4.372760934
1.176681363
1.002340011
0.9562922648
1.098674258
1.405354856
1.666202557
2.729566787
13.32738762
48.12820794
107.6316335
266.2635381
54.31135512
2.041466611
1.168083909
1.02017886
1.121533352
1.0928565
1.80837778
3.91502399
8.567172881
26.81504753
108.3215195
202.48917
278.4309063
257.0384954
16.58931836
1.483476435
1.139022828
1.075726865
1.062906752
1.00307646
12.76451367
68.40974604
176.6715461
282.9167298
335.6709023
290.9932313
237.7347108
258.2833334
156.565439
6.441189237
1.39450134
1.199249833
1.102816975
1.054426258
1.046426736
64.42828686
338.4523255
754.1298636
953.9884951
1006.521611
933.0184301
639.2895349
273.6375082
240.852405
55.12420758
2.349564323
1.338936864
1.169424678
1.095449873
1.109801618
159.2046503
658.7719444
920.9293287
1064.88278
1155.93887
1190.090981
1087.053196
842.9190379
330.5716713
105.2616615
11.43945805
1.741886119
1.33585645
1.208182107
1.143456777
236.725581
705.9125366
879.0701623
1018.01234
1188.777915
1357.186756
1349.001184
1149.444879
816.8652917
295.9716869
30.16474605
2.996158199
1.537568051
1.323724972
1.197144797
216.9566991
649.7713986
792.9234814
904.4030858
1157.964221
1488.574924
1683.105843
1469.453205
1062.866987
656.4553732
216.5637434
12.97234857
2.001615856
1.559302249
1.280405628
145.9873417
552.5413187
703.318292
784.6827922
1032.644101
1597.300943
2044.784641
1956.567538
1410.34345
829.2919343
474.1691891
115.1154776
3.898018555
1.818491289
1.471364453
41.16853478
394.5209642
620.2177542
694.3906881
856.9355816
1578.595043
2544.256529
2787.397129
2011.706931
1053.071081
593.2881635
315.7215379
47.38244423
2.453265738
1.718586924
5.594227743
158.2372077
483.5266086
596.519014
702.4715577
1305.134149
3037.893294
4243.538753
3251.481013
1488.484663
662.0022683
396.1683157
152.0993632
8.771281494
2.102175869
1.595737972
44.32365808
348.9741262
521.6637037
632.4342434
926.6000668
3066.32018
5412.894781
5610.880292
2377.508942
834.5649297
470.6027669
284.6018696
47.2927337
1.924482811
3.155735802
7.454164655
91.52192224
493.4665378
1006.095303
1533.833464
2794.680544
4859.188061
6664.005866
4312.373102
1704.482452
988.5888472
517.3731655
100.3010286
3.903482203
0.8406491444
0.8667199335
0.8729303216
0.845744775
0.8872042163
0.8851134314
0.8502873783
0.8548770227
0.9026018372
0.8871412742
0.8578151674
0.86043075
0.8655173005
0.8958393931
0.8887767366