/*--------------------------------*- C++ -*----------------------------------*\
  =========                 |
  \\      /  F ield         | OpenFOAM: The Open Source CFD Toolbox
   \\    /   O peration     | Website:  https://openfoam.org
    \\  /    A nd           | Version:  12
     \\/     M anipulation  |
\*---------------------------------------------------------------------------*/
FoamFile
{
    format      ascii;
    class       volScalarField;
    location    "0.3";
    object      p;
}
// * * * * * * * * * * * * * * * * * * * * * * * * * * * * * * * * * * * * * //

dimensions      [0 2 -2 0 0 0 0];

internalField   nonuniform List<scalar> 
110452
(
-12.64266427
-7.543155523
-39.32228684
-20.13250025
-7.844832994
-18.90183846
-15.39274887
-60.94748275
-58.38370102
-26.56517988
-7.698801376
-15.24570435
-12.34034342
-30.66579642
-36.0873006
-20.36409628
-84.85620717
-83.01419335
-42.35983318
-39.64559221
-7.869734811
-12.04286331
-19.40255357
-23.76354882
-31.85766722
-15.53407323
-43.77118068
-62.06155234
-44.35770724
-20.05576763
-114.3495456
-117.572243
-38.59755609
-46.41977639
-53.21504928
-6.682425953
-10.94805125
-21.56898228
-18.29204943
-30.92564721
-26.78277789
-33.14614919
-50.11142046
-41.57452381
-18.13285417
-59.45559342
-90.04988494
-70.96559021
-49.42015556
-24.93948666
-146.9903321
-161.0019073
-52.05226941
-22.65279666
-71.4568264
-68.06873528
-3.513310995
-9.142493357
-19.16583244
-16.26963284
-29.31558787
-30.9970099
-26.02146606
-45.06966469
-45.15671896
-29.53333751
-44.57852635
-71.46465114
-64.94850684
-48.89687617
-19.26386019
-78.19836986
-123.6358653
-103.421866
-71.49911198
-58.88190434
-31.29890906
-186.9469991
-208.1027168
-76.17735189
-25.23141117
-33.80209187
-96.6409417
-82.52750605
4.890466063
-6.53208874
-11.96938444
-14.21224616
-24.67140233
-28.19874088
-23.0136726
-41.05946832
-43.37369768
-36.98045323
-34.99610848
-62.82496881
-65.92417439
-55.09813137
-22.59600499
-58.56012818
-97.71598072
-93.11999868
-75.78824559
-53.36669303
-23.10394441
-102.217668
-163.159531
-142.6970429
-101.0855556
-80.13106771
-72.56767422
-35.01336256
-236.6969115
-266.5210136
-102.9173097
-41.58126807
-29.06992098
-48.10360352
-113.0656912
-89.88417805
20.18117038
4.337690438
1.03401867
-12.60038018
-15.23341407
-18.54673772
-20.96115852
-34.81247644
-36.3787959
-34.85950117
-31.71634261
-56.22522058
-60.94652298
-54.24098765
-38.42988133
-46.70548731
-85.63386078
-92.43359629
-81.37060784
-58.44496087
-23.15237571
-77.25295617
-130.7349383
-128.7464209
-108.9479216
-84.56075554
-60.70559377
-25.16839585
-133.1739514
-211.3914055
-189.5041839
-145.4022472
-103.6627601
-96.18179626
-81.87239076
-37.12176819
-297.4170851
-342.13252
-133.9769393
-60.68654655
-48.78370397
-30.9924389
-55.39019454
-119.4690402
-89.09833768
38.7271223
21.49013428
18.4675759
0.2237954713
0.5450133027
-2.957548279
-20.52508388
-23.23260637
-22.84383352
-23.8681616
-33.17189601
-48.21095084
-50.62213296
-45.63704659
-38.54693451
-45.90253131
-77.45211375
-83.88480274
-76.9768147
-61.26765187
-36.74733437
-61.79347213
-116.9336884
-127.5865359
-115.079469
-91.77529131
-62.12566555
-21.35182642
-103.0258637
-174.2186402
-173.9955752
-152.544134
-122.0097617
-93.37440871
-63.84079495
-26.50252609
-172.4505526
-273.298025
-246.9290922
-202.2115123
-145.8734839
-116.2224656
-107.3481923
-86.28751113
-35.88879896
-368.8564601
-438.8609906
-174.9530531
-83.47863735
-71.81042033
-49.6921524
-32.96922113
-57.53099264
-115.758765
-82.19202439
57.46051441
41.64020966
38.07283534
19.97020171
20.28419951
16.48598445
-5.05158617
-3.780151319
-3.722014799
-6.634659102
-33.87800073
-33.61119646
-32.77507769
-29.31190556
-27.49592583
-61.228795
-68.61423536
-69.50460938
-63.50300134
-51.90049872
-39.20652833
-62.45544254
-109.6806687
-116.1551428
-106.5227602
-88.60355824
-64.24111294
-24.78511085
-83.42280109
-155.859774
-173.8095483
-160.6132879
-131.9503297
-98.93626481
-60.31259125
-21.38466636
-137.1768377
-230.1134108
-232.3142759
-209.5749358
-172.2058568
-132.304687
-97.61909606
-65.11183197
-25.26309596
-217.0450952
-352.1813253
-318.4600502
-272.6145241
-209.324532
-152.6590479
-127.7302062
-110.5217957
-83.5576441
-32.68195157
-443.3087422
-560.3605043
-233.3847431
-119.3648921
-103.6981445
-80.41837869
-46.52724759
-32.1373534
-53.72863909
-105.7354357
-70.65946058
74.91558181
61.37532178
57.42872893
42.61139623
41.56986748
37.29213597
18.46460854
19.29700169
18.53978678
14.46056505
-13.51312287
-9.145962709
-8.827464349
-7.590609192
-9.368401029
-53.33834292
-48.73441039
-45.77860433
-41.12160113
-34.18469967
-29.15544155
-89.5917152
-98.87335863
-96.80887428
-87.13762349
-73.16049761
-55.2193871
-36.24921455
-85.47366759
-148.8020446
-160.2235871
-148.0840611
-124.0058334
-95.10081297
-60.84951408
-22.62697658
-112.8406922
-207.3945327
-234.3257164
-221.1550242
-185.9377707
-143.1783151
-100.6037058
-59.57640361
-19.72076841
-174.2924155
-301.4380452
-307.0748769
-284.2925984
-239.7854377
-185.5536405
-136.8015377
-96.99751789
-61.6970226
-22.95448561
-262.3154226
-447.3229673
-410.1269495
-362.7497929
-295.2738837
-214.4141686
-161.9319457
-128.9252311
-105.4051193
-75.63684511
-27.97800487
-528.7820152
-699.5615433
-324.4567069
-186.4598279
-162.7015792
-125.4158551
-73.59575639
-38.27261058
-26.20971935
-46.97226824
-92.09169581
-55.18424872
89.78356533
79.22876491
74.95039069
64.12113177
61.88148825
57.46212416
44.55275884
43.2859332
41.28570073
36.37589913
15.59466602
18.70111941
17.7018936
16.79068535
12.70957454
-24.75549129
-17.29142082
-14.99503695
-13.21477124
-10.6369569
-11.21333575
-77.39800095
-68.54025854
-64.43996408
-56.48250878
-47.83122244
-37.07359843
-28.71791248
-124.1302876
-135.5662838
-133.94163
-120.8153542
-101.2258597
-79.00118402
-55.40771744
-34.09132861
-117.7015944
-200.1713185
-218.6298398
-204.4570568
-173.7756387
-134.7932332
-95.83375191
-58.67181935
-20.80453549
-144.538209
-275.3355509
-314.6425008
-302.5502475
-259.0816903
-202.5088147
-147.3133573
-98.54036596
-55.77766095
-17.57401698
-209.5620802
-388.0830165
-406.0608028
-382.7250583
-330.3722308
-259.4760984
-190.5185218
-133.3037076
-90.40349779
-55.41139746
-19.94315438
-314.1983314
-554.6659856
-528.2882254
-484.0100586
-412.0793009
-307.8580688
-219.4915404
-159.7209981
-119.9589125
-94.35561443
-63.95039229
-22.24829532
-623.4580102
-865.0448273
-464.6132712
-306.8609079
-269.2135641
-205.305405
-112.2808059
-50.22635492
-25.70723492
-20.19065154
-38.97390652
-73.79331357
-38.64438592
101.8137138
94.07545644
89.80246192
82.92839739
79.72950835
75.35812009
68.4285361
65.34083654
62.41376972
57.18642544
46.33265508
46.37961968
43.52360589
40.88874243
35.58523761
12.29934297
17.25846631
17.51222715
16.22532111
15.27772089
11.2566383
-38.99171345
-27.39812704
-23.93659203
-19.92831499
-16.88528182
-12.88942528
-12.01628256
-106.4511112
-94.20715146
-88.82419674
-78.35944565
-65.66896669
-52.23790869
-37.65327329
-27.81263314
-168.5960089
-182.3680219
-183.3042963
-166.599959
-141.2897043
-110.2705306
-80.78380171
-54.01227473
-31.56612438
-165.867504
-268.4107986
-296.7937222
-281.7179027
-242.2107997
-190.3579152
-138.3469248
-93.31613433
-54.76454378
-18.63933973
-185.360402
-358.7906963
-421.9806804
-413.3894907
-359.3751925
-284.2435121
-209.1364386
-143.4461598
-91.58547918
-49.84544233
-15.18285238
-248.8671911
-490.2125335
-527.1155
-515.8160937
-453.1478072
-360.250545
-266.0210085
-182.9747214
-122.1947762
-79.99466833
-47.46877315
-16.40164028
-370.03057
-673.4048861
-673.2581185
-643.6497066
-567.9456186
-443.697467
-306.624059
-210.8542564
-143.7766497
-104.6577894
-79.30828507
-48.79263384
-15.57379068
-708.2407115
-1042.222427
-637.1060058
-490.5540148
-432.9142457
-333.1421662
-186.5352423
-65.37833318
-24.22518278
-18.21987124
-14.57866302
-29.41399874
-50.039676
-24.13615727
111.0714442
105.806986
101.7289562
98.10289076
94.4496699
90.27112756
88.41791429
84.06192137
80.5732662
75.31624723
73.26758148
70.72024627
66.45152475
62.68493055
56.88454506
48.87722655
49.8952816
47.56981319
43.80177534
40.48671878
34.47789262
8.405447964
16.22808581
16.87739294
16.65286944
14.88828903
13.79725039
10.42688412
-55.81843842
-39.65953856
-34.6885452
-29.40697834
-24.35765831
-19.69451751
-14.03021924
-12.19875128
-143.1210969
-126.2632968
-120.9007048
-107.3720907
-91.16692242
-71.93933416
-54.01207127
-37.34867281
-26.00411483
-229.2634304
-244.0016588
-249.3919897
-229.9286694
-196.7658169
-155.0425584
-113.7899481
-79.4238581
-50.7291536
-28.42369468
-285.340655
-358.7119437
-404.4284815
-389.2930457
-338.1905046
-267.8890864
-196.9793977
-134.726927
-86.83942285
-49.17579095
-16.22622667
-222.5757334
-479.3881968
-560.7438139
-565.7366912
-500.0913336
-397.1850551
-294.2381838
-202.3064809
-132.022601
-81.20444899
-42.75942656
-12.53991786
-294.260678
-595.313253
-664.8030873
-676.7515858
-616.3233588
-498.8072346
-368.3824892
-253.0783288
-164.2371006
-106.5608603
-67.63517444
-38.06324855
-11.9991722
-416.841012
-790.0144739
-819.9597037
-826.6760455
-761.9534722
-626.9339651
-438.5042283
-286.154546
-183.5125383
-122.0565234
-85.51708448
-59.61758175
-33.17587414
-9.801641426
-755.5447361
-1183.508518
-802.7772836
-681.4054526
-629.3896761
-492.8856953
-307.2172118
-112.9233874
-17.41824869
-15.21868738
-15.15342779
-9.519873646
-20.31646329
-36.85509
-9.164448217
117.8709657
114.6274468
110.8559248
109.7132019
105.9941991
102.1125967
103.9278489
98.96700931
95.29665795
90.2693412
94.76997325
90.47599722
85.39503992
81.03512357
75.23857411
79.48704577
77.18031341
72.87161081
67.49345726
62.82977901
56.05803348
52.30185922
55.06526682
52.5776028
48.94718779
43.91643422
39.54612105
33.37755059
4.394265311
15.85963528
17.3474395
17.2097577
15.7225855
13.42441033
12.69224426
9.490610765
-75.77379046
-53.5738155
-47.67476565
-40.71807174
-34.7862384
-27.78650917
-21.32968876
-14.84045411
-11.36766172
-190.1866693
-167.3034227
-163.0531162
-147.1206263
-125.7776655
-100.2474805
-74.94485768
-54.09805736
-35.43136599
-23.55435492
-317.4886025
-327.0275167
-341.6195548
-320.460086
-275.7885165
-218.3524193
-161.3845507
-111.8011733
-74.49487339
-45.94359829
-24.7719901
-379.1195795
-500.565659
-550.4695226
-543.2799281
-477.8530001
-377.6370686
-278.5021991
-190.9230339
-124.6372516
-77.43306112
-42.59666688
-13.65095699
-266.8737139
-600.6831963
-737.0033786
-757.7368928
-690.0003407
-556.9249613
-409.9029352
-282.5350771
-183.0792252
-115.7784027
-69.16682782
-34.62224062
-10.13952617
-329.3374885
-692.7240266
-790.7876014
-832.0785109
-797.5787873
-679.6760118
-510.6452073
-349.6808473
-223.0109067
-141.1782471
-89.36911708
-53.70685957
-27.67707778
-8.895349485
-440.5914345
-877.8669267
-939.0214977
-990.131417
-966.4765309
-846.6152757
-628.3576948
-400.5745546
-243.9079322
-150.9684184
-96.80758932
-62.6348063
-41.47052608
-17.87376973
4.92340166
-747.1159241
-1246.879566
-914.7590315
-807.7201475
-760.6911776
-609.5616556
-425.1781672
-215.2860637
-36.92752041
-8.260906293
-16.62340761
-12.73813875
-15.07989255
-35.2411517
-20.07012679
122.5992534
120.9524508
117.5206963
118.1463353
114.6246455
111.1013125
115.2973609
110.2398922
106.665654
102.025736
110.6667173
105.5047593
100.1803318
95.68932936
90.22598126
102.669166
98.1730264
92.70555055
86.55861347
81.34910568
74.52403954
87.20986171
85.74498186
80.89269188
75.09288807
68.27428165
62.20243469
55.03859753
57.03622686
62.33274925
60.12107425
55.8256281
50.0205812
43.27438669
38.40392627
31.88994274
0.5382821039
17.21203825
19.4904297
19.73336925
17.04546964
14.46786118
12.07932049
11.12399036
9.188224127
-99.65831659
-69.46743689
-62.70925812
-54.70376646
-47.5227762
-39.07575431
-30.11116164
-22.73761491
-14.40090877
-10.04050081
-250.8696869
-220.6888966
-221.1049942
-203.4319464
-174.8473881
-139.9873116
-105.4628012
-75.08303694
-51.47448572
-32.36037508
-20.49360445
-411.9983422
-436.9522481
-468.5107122
-452.8591299
-395.1447656
-310.6122659
-228.7977621
-157.7465646
-104.3327248
-67.03822351
-40.11473399
-20.99960015
-465.8095447
-642.9028153
-736.7517454
-741.0494196
-672.7098066
-537.8642725
-391.6175052
-267.9128994
-173.941364
-110.1176403
-66.56027826
-35.31529432
-12.02336383
-301.5544418
-708.0019086
-903.8429634
-963.267543
-911.5108734
-767.2580892
-572.2684194
-391.0379711
-252.1866602
-158.2652038
-97.63451158
-55.35269885
-26.71256101
-11.79048494
-343.681084
-753.059537
-871.8720917
-937.0166446
-948.8214985
-876.1396568
-700.6622322
-483.4760084
-305.8756881
-188.8600774
-117.7114182
-71.25390608
-40.0642682
-20.03384482
-4.812994049
-434.1592559
-914.8040098
-1011.873251
-1103.806744
-1137.707148
-1069.805658
-860.0774716
-579.9052633
-337.4804018
-196.2715695
-118.8774143
-74.49413584
-50.04986985
-27.70001988
-5.275773237
-688.8029757
-1226.58854
-956.2820912
-826.3928844
-706.4411657
-513.6532702
-389.5797498
-313.0180511
-123.7130717
-22.74298355
-14.22851005
-12.65585778
-26.51444602
-53.69900742
-32.61163573
125.6321269
125.2297282
122.1325614
123.9674148
120.771716
117.6231306
123.175559
118.3608354
115.063297
110.8806043
121.6965735
116.3521194
111.2028585
106.8711732
101.913726
118.8567612
113.2667709
107.3799775
101.1524339
95.94178548
89.52323545
112.1326867
107.9158224
101.7367494
94.92452263
87.46680807
80.81506154
73.48696799
96.60802069
96.76949122
91.83667153
84.99040561
76.95906665
68.00538566
61.11720795
53.29401565
63.43979875
72.59395903
70.9379507
66.3452004
58.37914618
49.96612057
42.11205747
36.33818411
30.74631825
-3.015659625
21.07560396
24.97180528
25.20448012
20.90524939
16.36292845
12.80556256
9.779227359
10.22088529
9.113806724
-127.6783553
-88.09958089
-81.68967367
-72.6686355
-63.8466445
-53.49204071
-42.76355838
-32.17249882
-22.41410596
-13.19016282
-8.070044742
-321.0351337
-289.8726195
-301.1341187
-287.5327536
-250.4237232
-198.3968248
-148.8585787
-105.2215545
-71.35385109
-46.86619654
-28.3330506
-17.09715038
-503.0360757
-561.4953104
-624.1133588
-624.9027108
-567.0291409
-450.3312516
-325.4242734
-221.8705986
-145.0114019
-93.06887511
-58.16973404
-33.64163258
-17.85668518
-525.1495283
-760.7558957
-905.4467687
-950.6810356
-899.5615638
-750.989358
-552.4061779
-372.5614058
-240.8325979
-151.6877499
-93.92868147
-54.40011461
-28.6018892
-14.19666613
-314.1667698
-768.3022744
-1009.950736
-1116.372187
-1117.215225
-1005.337017
-790.346793
-540.6315079
-344.8186935
-214.0315482
-132.3665929
-78.05998116
-41.9641131
-21.68725209
-7.78000188
-335.1221777
-765.2710053
-893.9834644
-972.2770063
-1030.693256
-1039.858019
-909.8020508
-669.3070996
-421.5149471
-256.4896059
-156.326404
-94.69042178
-55.10957625
-27.57153043
-8.701208473
-400.8580292
-897.1234549
-1029.987114
-1155.360932
-1243.460612
-1257.190712
-1098.240885
-808.8983494
-495.901941
-270.4532072
-157.8505278
-100.8345407
-70.68394355
-43.66403406
-13.77797564
-599.3135052
-1134.887475
-934.1765567
-780.3094841
-395.2106157
57.22369998
128.0820078
-211.909374
-241.0800314
-98.81612488
-19.66189369
-9.080567727
-39.14827078
-81.85182277
-48.20757555
127.2628287
127.86309
125.0833963
127.726257
124.8961386
122.1145218
128.3100375
123.9373025
120.9828324
117.2636291
128.856873
123.773677
119.0447584
115.0523344
110.6595732
129.3449352
123.48065
117.7824507
111.8250498
106.9559623
101.1679367
128.3906395
122.791428
116.1711045
109.2478124
101.8836706
95.37389076
88.47857332
123.0939361
119.8970914
113.4710448
105.5060234
96.7982168
87.25651001
79.72576138
71.62121652
107.9046961
110.7436616
106.2034056
98.84907973
88.49899663
77.33128892
66.94678798
58.84473532
51.61400271
71.49933959
86.60420191
86.62902276
81.76344711
71.20733635
59.55522189
48.74085252
39.32794022
34.49480616
29.55248879
-6.061274138
28.42118049
34.91858652
35.60539635
28.99567498
21.2216161
14.04440348
9.491977249
8.285851335
9.640847277
9.577413924
-161.7001182
-110.3330647
-106.8737626
-99.3275461
-87.98078453
-73.51550574
-59.8186355
-45.60312821
-32.00759306
-20.78939826
-11.13509234
-5.855460848
-392.7667971
-370.7421777
-400.9386121
-400.4554637
-366.9288223
-291.8195622
-212.1785364
-147.4506925
-98.82140542
-64.58097609
-41.00142983
-23.76978782
-14.21479601
-567.3704078
-672.1714678
-773.5794307
-804.9545176
-765.907785
-641.1644476
-466.0935971
-309.7185309
-201.0967568
-127.7226935
-80.12447439
-48.33359368
-27.67501842
-15.43894955
-540.4753608
-825.7459711
-1010.516395
-1098.662987
-1099.308454
-987.5426372
-769.8452216
-517.7826531
-328.526547
-206.0189196
-128.2822733
-76.07834044
-42.60159727
-23.07630677
-12.10420104
-301.1267982
-774.1091672
-1033.36196
-1173.27063
-1245.73119
-1218.672104
-1036.569566
-750.5791675
-469.9874592
-289.7945179
-177.2078327
-105.7023229
-59.01914486
-28.10671348
-11.76196449
-307.0751949
-738.4013354
-868.8139636
-942.6235524
-1027.278983
-1138.233838
-1095.698309
-878.3899503
-587.0576907
-352.6817166
-210.3927321
-126.3495725
-74.86989114
-39.66803092
-12.15618296
-349.0662363
-832.4022073
-1000.890935
-1143.175914
-1257.340604
-1348.024732
-1310.8936
-1053.377552
-708.6868069
-402.7579396
-223.0206979
-143.0704583
-102.2498785
-65.27114186
-23.06745657
-506.521827
-983.5446536
-857.6346768
-758.7327836
-45.88159359
1173.385172
1446.996256
552.6611043
-235.4015263
-235.440867
-67.78395174
-13.38606925
-53.15833145
-115.6757196
-64.5907656
127.7774058
129.1606088
126.6799931
129.8909432
127.4122752
124.9759505
131.3811158
127.5053145
124.9218477
121.6256938
133.1316139
128.5489361
124.3222227
120.7723281
116.9296255
135.5682527
129.9617111
124.7576719
119.3061578
114.9381444
109.85231
138.0244954
132.0527715
125.5870367
119.0470202
112.2689135
106.2973385
100.1128932
139.0540786
134.0991192
127.1911378
119.1817388
110.702596
101.5621929
94.2672148
86.59798219
135.5976443
134.2209341
128.0972886
119.6010392
108.8533344
97.12367498
86.2112252
77.40745195
69.67471859
120.7183669
128.0696696
125.053394
117.5108271
104.6883205
90.1207916
76.31924642
64.01482216
56.489942
49.65143401
80.95929675
104.8857361
108.5427905
104.2168116
90.60678035
74.50786258
58.14805444
44.85604382
36.70272891
32.58532047
28.78149385
-9.750710667
39.50480903
50.48798028
52.30265357
43.59060507
30.26315396
17.40503184
9.24664165
7.038186851
7.392092225
9.709610179
10.28039584
-200.8810498
-138.5884877
-138.1355287
-135.9282323
-129.7978284
-107.1779202
-83.93396048
-63.58089056
-45.19827417
-29.80993389
-18.13021332
-8.729639137
-3.936507605
-450.5241127
-451.2290495
-504.0209072
-521.147338
-506.1821372
-428.9432582
-308.5601218
-204.4567467
-136.5549082
-88.37461061
-56.29733134
-34.33716614
-19.46567531
-11.55542719
-586.6399211
-740.262333
-876.3788064
-938.6745746
-937.6301819
-844.4779163
-657.4536531
-434.9829817
-274.118448
-173.2928274
-109.0226511
-65.97617236
-39.0363758
-21.76235493
-13.11167735
-512.5163756
-832.587206
-1039.077924
-1149.504529
-1210.152875
-1178.845715
-1007.544169
-725.0705377
-447.2192922
-277.0321901
-171.4441097
-102.7784599
-58.75339315
-30.3557703
-15.05595567
-266.2728041
-739.5620671
-996.3398692
-1140.349653
-1271.733588
-1359.748152
-1256.122647
-988.8239478
-646.7301147
-391.1704746
-236.8369868
-140.8993682
-79.97891444
-38.61623135
-11.39780965
-266.4306869
-681.6100246
-823.3872695
-870.3958978
-936.2139665
-1142.466144
-1242.517745
-1071.486077
-774.2660371
-487.6336178
-286.5486553
-169.2387829
-100.616239
-54.65497792
-18.27443108
-295.178484
-729.6484065
-934.7259446
-1095.004583
-1197.285857
-1120.869076
-1242.680076
-1295.584056
-945.9638533
-596.9090548
-335.3530561
-203.9043055
-140.8524911
-90.65799875
-32.50650224
-421.0050909
-809.0300765
-726.5061494
-755.8324825
-49.89353623
2044.236553
3351.063553
2324.221619
195.1306086
-364.8668021
-187.110792
-41.18876875
-70.74634496
-154.3840794
-84.97787622
127.5380485
129.3988088
127.1928368
130.815195
128.6443042
126.5159905
132.931386
129.5262901
127.3015949
124.3660483
135.3555916
131.3714305
127.649807
124.5457575
121.1942983
138.7980514
133.7138748
129.1371833
124.2944505
120.4704833
116.0633911
143.0035161
137.2938949
131.3963251
125.4552095
119.445358
114.1766529
108.7950214
147.474202
141.9243224
135.2210743
127.7640067
120.0168093
111.7784661
105.168758
98.28028448
150.7596088
147.0509984
140.4000991
131.8411799
121.7671225
110.761382
100.4910761
92.0086161
84.58267353
149.0160787
150.9722342
146.1169298
137.5886195
124.8150335
110.1874156
96.15185389
83.33203959
74.86482163
67.30470378
134.3076212
148.595688
149.1383633
142.4036836
126.958585
108.3764619
89.18746465
72.35381082
60.8750913
53.78831687
47.98122159
90.51725852
127.5017725
138.129843
136.1216317
119.5149569
96.27465176
72.31984392
52.58095776
40.97174246
34.10217706
31.14040293
28.18741631
-17.51402078
51.05828869
70.94646951
75.38342248
62.9555998
45.04586315
23.9496647
10.53660171
5.519163729
5.596862659
7.249839411
10.03608352
10.83028128
-239.1069738
-174.0119031
-173.573505
-173.0589117
-182.7242813
-165.7032543
-122.1241858
-85.54765564
-62.45553668
-41.79658503
-26.37247008
-14.80607781
-6.314708824
-2.061054871
-475.4145097
-513.4787681
-587.9093391
-617.9768752
-626.1234921
-572.5779645
-445.314258
-289.1066058
-183.7451797
-119.3118246
-76.58145303
-46.99021985
-27.99536673
-15.34755547
-9.918643079
-562.6836955
-757.8270224
-916.1159568
-989.0063723
-1022.651134
-994.9363548
-855.8784403
-613.2974099
-374.1659233
-232.6697697
-145.569597
-88.79327541
-52.62951896
-29.63321411
-16.62504894
-452.8441917
-796.6437287
-1015.735631
-1128.453471
-1221.535772
-1280.375965
-1185.285997
-950.9549698
-619.0452675
-373.215503
-227.5207383
-136.1985953
-78.81575675
-40.41717157
-14.27138702
-221.6329112
-675.9073731
-940.2973371
-1057.376083
-1175.132789
-1385.915971
-1431.864458
-1193.796775
-850.5074921
-526.1946213
-315.1533237
-186.4917199
-106.1572162
-52.13085834
-15.04495398
-227.4052383
-599.832872
-767.4005701
-806.9253233
-800.467755
-1032.727898
-1384.706768
-1231.589072
-943.6493521
-642.6189121
-390.6908887
-226.6922823
-133.9758069
-73.6629256
-24.77399804
-245.0357811
-612.3820779
-833.6785474
-1030.087958
-1123.292705
-670.3317088
-249.9859715
-959.7022709
-1185.565885
-825.2273092
-503.7091378
-288.6400385
-188.5899898
-121.4863435
-44.09659585
-339.9213675
-642.0307593
-556.7334288
-698.3982409
-359.5435347
1936.895754
4657.274105
4811.742988
1349.829264
-384.3889214
-357.5809926
-113.6692913
-95.71458949
-197.945021
-111.3946545
126.6411621
128.9048664
126.9649746
130.7735461
128.864762
127.0152989
133.3437271
130.3552035
128.4456096
125.8333622
136.1590269
132.7409971
129.5026358
126.7965367
123.8615257
140.0382906
135.5698268
131.620387
127.4023816
124.0871467
120.2869506
144.9265914
139.8025218
134.5892588
129.3877004
124.163416
119.616348
115.009979
150.9343621
145.5123603
139.4034458
132.6857297
125.9543176
118.7866733
113.0312769
107.0466345
157.5301502
152.8586301
146.3798324
138.4415489
129.4903276
119.7628905
110.6718275
103.0245818
96.32196238
162.8059029
161.5428231
155.8934843
147.4674073
135.921085
122.5693524
109.7514036
97.77542232
89.49361654
82.07972108
162.4509055
169.5918879
167.7639645
160.193756
145.3968349
127.8385429
109.3897349
92.37653359
80.10992972
71.82136465
65.13357821
147.1731619
171.5208503
178.7813833
174.8346213
157.3193995
133.3364697
107.1297216
83.6474535
67.97766491
57.37522969
51.39054304
46.41250971
97.34097996
152.5284027
175.8471457
180.3973331
161.5514409
129.1549831
92.70904271
64.53129916
46.86936361
37.26370717
31.9718843
29.84276908
27.57568487
-31.09345614
55.94054776
90.04442901
104.1649732
83.48232517
57.46412974
34.11205007
15.92217416
5.027806338
3.500059371
5.029207335
7.649370904
10.51470189
11.4158553
-265.1559338
-211.7722949
-213.6804811
-203.7230503
-225.840898
-227.1694178
-181.0436597
-118.5316341
-81.96252483
-56.40509568
-37.24142124
-22.01243965
-11.52614395
-3.985073968
-1.433910731
-463.9999805
-543.1665143
-637.173847
-661.4613622
-674.8941584
-669.6744815
-583.2391477
-410.6653281
-247.1755713
-158.7863104
-101.9599916
-63.46892903
-38.17111828
-21.62907486
-12.86589936
-507.2522411
-734.1393399
-916.4935255
-983.8918192
-1016.454436
-1045.015756
-983.8244188
-801.386605
-519.3205151
-312.7708864
-192.661293
-117.1347337
-70.21096694
-39.16453623
-20.83481773
-372.0832254
-728.9895524
-972.0107908
-1071.089327
-1163.240939
-1296.007906
-1282.59448
-1109.806707
-814.5905977
-502.0681943
-299.831244
-178.4394316
-103.4035164
-53.53861857
-17.2643842
-184.0475928
-586.5864756
-875.5935958
-983.035922
-1022.817789
-1218.452527
-1507.987915
-1352.259939
-1016.115519
-687.3690803
-416.2140875
-244.6692644
-139.1295202
-68.80711207
-20.02486232
-192.251347
-507.5880695
-695.0480757
-763.4838151
-719.5197814
-790.1225964
-1295.702729
-1376.531981
-1079.672179
-779.7958671
-516.5312199
-301.3708799
-176.7659911
-97.87788625
-32.7358087
-194.9496605
-495.2882185
-705.3186055
-941.4960567
-1062.460333
-604.7985116
1278.455908
1231.670268
-1134.445926
-1058.776034
-703.1071613
-407.4868678
-247.646483
-159.1423794
-58.42246007
-270.9155089
-494.8235722
-382.0437127
-564.2167323
-581.3521524
1073.595747
4942.392222
6200.112291
3143.148387
-132.5504769
-527.6350801
-237.795532
-139.3884603
-250.0713105
-143.547095
125.17542
127.8052116
126.155872
130.0272576
128.376806
126.7616958
132.8944044
130.2714957
128.6308999
126.3190734
135.9561099
133.0244048
130.2158277
127.8514426
125.2672846
139.9968285
136.1457601
132.7564785
129.0989624
126.2200056
122.9378043
144.9800033
140.5544947
136.0300194
131.5612865
127.0529833
123.1646056
119.244213
151.3689001
146.4512705
141.0761117
135.2153934
129.4808097
123.3614309
118.4593793
113.3600027
159.1574441
154.3852287
148.456863
141.4033214
133.7194901
125.4186788
117.6499941
111.0234439
105.2148095
167.5352247
164.6677127
158.9570081
151.1771613
141.2230894
129.7260931
118.6960927
108.1653703
100.6566541
93.86785909
174.351325
176.87207
173.6146834
166.1323094
153.2996584
137.8358862
121.7481475
106.2870066
94.7219221
86.42562524
79.71952758
174.5456914
188.9957847
192.6780485
187.7517853
171.8726742
150.9375076
126.8726105
104.2668925
88.10320624
76.32966419
68.96765077
63.00310207
156.7018781
194.7771957
213.3601052
216.2913882
198.5638952
167.4530941
131.2087381
99.57229062
77.51976991
63.2312095
54.10928752
49.0395832
44.91096891
97.60561904
173.6623276
218.3413828
238.9811079
218.8897934
174.9395509
121.7357998
83.09422421
56.14275719
41.71222957
34.05163903
30.25055683
28.86621172
27.20127203
-47.91201009
47.55895932
99.43006606
136.8659456
115.7859871
69.95487242
44.84019754
23.65403928
7.583425456
2.420122625
2.261735411
5.263382433
8.189474165
11.07702949
11.09360877
-270.087729
-240.8853175
-253.0103853
-222.13838
-228.1212388
-259.0264261
-239.5179448
-163.2851226
-104.6667428
-73.64204522
-50.03182021
-31.36374238
-17.73624509
-8.182466508
-3.232933141
-425.6653026
-538.3157651
-661.6696895
-672.8814737
-645.4578229
-665.1259232
-660.2379168
-542.2626439
-341.9584139
-211.8223215
-134.4480498
-83.70056265
-51.39953098
-29.22341921
-17.58723954
-430.5021005
-677.0085073
-895.9954025
-966.3897962
-971.9830523
-1006.369613
-1000.618606
-915.3618658
-690.0337803
-422.9508565
-252.9737588
-152.662975
-91.73428422
-51.71589907
-26.42222379
-284.8911611
-631.8304957
-910.4767599
-1019.443426
-1072.669776
-1189.330599
-1301.66483
-1172.973288
-947.8695867
-653.9948301
-393.3658055
-231.3695953
-133.9301672
-69.46381045
-22.30694739
-145.4608753
-482.7363299
-790.0177231
-925.8202226
-932.8463898
-963.634788
-1383.851205
-1385.357794
-1117.792077
-820.5224753
-539.736868
-317.3721307
-179.9120235
-89.63128203
-26.18367569
-151.8496025
-411.6171363
-608.3864976
-718.3503672
-697.8495677
-651.6699016
-740.7283055
-985.6815539
-1166.061664
-869.926154
-630.7758595
-397.2359987
-229.3834727
-128.7636658
-42.9404615
-150.8897147
-388.1483737
-562.3680752
-815.9033737
-1002.429141
-883.7080426
1607.242895
4315.893252
-44.30108306
-1230.688665
-895.048062
-557.5917957
-322.7317105
-205.8201243
-75.99289628
-213.4825825
-380.5108258
-247.2996536
-385.2570713
-604.5792794
142.7756961
3710.887027
6446.983701
4359.736777
547.1282651
-633.8314256
-397.9144687
-217.1481549
-314.0296509
-180.9569282
123.2333119
126.1283908
124.8542542
128.7377164
127.3638026
125.9881085
131.8159174
129.5305253
128.1286229
126.0923815
135.0278688
132.4999776
130.0575714
127.988437
125.699095
139.1039993
135.7888875
132.8882478
129.7003589
127.1886054
124.335954
143.9546895
140.2065357
136.2943894
132.4920153
128.5885976
125.259476
121.910011
150.1264443
145.8556205
141.2341509
136.1903774
131.3326782
126.1459248
122.0031468
117.6924675
157.9011969
153.4955992
148.2577359
142.1576149
135.6764776
128.7161211
122.2010193
116.5874275
111.6823209
167.1196296
163.6947668
158.3588984
151.426703
143.1132066
133.4756577
124.3066396
115.3571157
108.8543404
102.9109837
176.7879856
176.6721208
172.7776383
165.7907017
155.0934997
142.1343995
128.8319746
115.570955
105.3947924
97.75217864
91.5337245
184.3192095
191.9980327
192.9363558
187.6644802
174.2033222
156.9871611
136.87981
117.1724817
102.4121145
91.05440052
83.48200469
77.36936958
183.2372961
207.3800453
219.5573026
220.4834752
205.5427189
179.9859775
149.2747277
119.9991109
98.60746187
83.18932051
72.61563234
66.08362006
60.97543113
160.1490361
214.1130722
250.5748213
267.1040772
252.4631411
213.6438921
161.3439429
121.8346779
90.82298794
71.08138671
58.66223126
51.13778998
47.0873107
43.7230729
89.06895455
182.2033011
255.0642908
306.134198
296.5075766
238.2116009
167.0914387
105.6592996
70.38965216
48.94384361
36.91038185
31.47162404
28.79822152
28.12544297
26.14693318
-61.66629468
27.70927558
89.50542155
164.3288572
168.802674
105.8794116
62.27839992
42.51696145
16.60263734
3.466445125
0.17274887
2.287641944
5.757208776
8.999938707
10.48889203
-256.2186877
-253.3067518
-289.032182
-235.5406011
-179.8552035
-211.4749978
-263.6122667
-219.5485687
-131.9803461
-94.32134019
-65.80233164
-42.33104028
-25.81089553
-13.20087298
-6.957559873
-368.7844298
-503.2861602
-669.0306956
-693.7311694
-613.936267
-576.0080651
-615.4843417
-619.6592974
-472.0265561