# Forces          
# CofR            : (-4.1740000000e-02 1.1180000000e-03 -5.5878000000e-02)
# Time            forces(pressure viscous)	moments(pressure viscous)
0                 	((1.8730630144e+01 -1.4392154508e+00 6.8039730733e+01) (1.7821184010e-03 -2.6063933940e-04 2.7740084519e-02)) ((-2.5497368237e-01 -1.4625800360e+01 9.9565439206e-01) (-1.0746516022e-05 -3.8522820026e-03 -4.4698949697e-05))
0.01              	((5.0446657032e-01 9.6091298252e-02 3.9312845511e+00) (-2.6219406026e-03 -5.0054827751e-04 3.8646735824e-02)) ((-3.4836928767e-02 -5.8779439364e-01 6.7162476317e-02) (-6.7325157152e-05 -5.8234307534e-03 8.6855441830e-05))
0.02              	((-1.3336888304e+00 -3.4879456837e-01 3.8658957062e+00) (-9.9447502438e-03 -6.8688112438e-04 4.3234821347e-02)) ((-5.1722913154e-02 -6.0689620033e-01 7.0855561249e-02) (-1.8377333390e-04 -5.9220360276e-03 2.0000030883e-05))
0.03              	((-5.9028071854e+00 7.2691757325e-03 -7.2926709734e-01) (-2.9571063216e-02 -7.6018052822e-04 3.6989875886e-02)) ((-4.1916048238e-02 1.0724346154e-01 1.7468322515e-01) (-2.4691404851e-04 -4.8128536429e-03 -4.1343433949e-05))
0.04              	((-9.5373074129e+00 -5.8581774701e-03 -8.8075557708e-01) (-7.3268735820e-02 -6.8913980758e-04 2.9561617628e-02)) ((-3.5732201806e-02 -4.3390661686e-01 1.3204973278e-01) (-2.8085058615e-04 -5.6906867908e-03 3.3170553374e-05))
0.05              	((-1.2594093933e+01 -1.1096012423e-01 2.1675699583e+00) (-1.6170540818e-01 -1.0374213835e-03 2.4349077411e-02)) ((-6.3247781990e-03 -1.5973268748e+00 4.0658327116e-02) (-3.5184107649e-04 -1.1121305733e-02 1.9132065235e-04))
0.06              	((-1.3512666681e+01 -4.3891500499e-02 5.3101582053e+00) (-3.0980748343e-01 -2.5285506847e-03 1.5931203528e-02)) ((2.2754171065e-02 -2.4010617161e+00 -9.6203087003e-03) (-4.3597067510e-04 -2.0520360907e-02 7.0397929088e-05))
0.07              	((-1.0862213829e+01 1.2897978410e-01 8.5709369892e+00) (-4.5215182574e-01 -3.1361573196e-03 2.7622389335e-03)) ((3.5819288443e-02 -3.0046738358e+00 3.7661589969e-02) (-5.3526963523e-04 -2.9280144526e-02 -4.0397397441e-04))
0.08              	((-7.5374081652e+00 4.4381815546e-01 1.1279627337e+01) (-5.3474570517e-01 -2.4668371027e-03 1.6029829503e-03)) ((7.5565066206e-02 -3.9866921006e+00 1.2882728179e-02) (-7.2386038937e-04 -3.7693017326e-02 -3.9349390013e-04))
0.09              	((-4.6996417241e+00 5.4529181519e-01 2.2266606439e+01) (-5.7581171760e-01 -3.5188034314e-04 2.8995637565e-02)) ((1.5144375102e-01 -7.1400517065e+00 -7.1477134939e-02) (-9.3015510927e-04 -4.9717588995e-02 -5.2773818985e-05))
0.1               	((-3.3219621268e+00 1.0277282499e-01 3.8890741435e+01) (-6.3457280237e-01 -7.1809545456e-04 8.7322872165e-02)) ((1.5744755387e-01 -1.2351665965e+01 -1.6439211919e-01) (-6.3370043154e-04 -6.7534773361e-02 -6.2222497258e-04))
0.11              	((-2.4549048339e+00 3.8504802993e-02 4.9700692878e+01) (-7.9939076894e-01 -2.8591444749e-03 1.3366499097e-01)) ((1.5557621829e-01 -1.5918496230e+01 -1.7777193478e-01) (-5.8170353522e-04 -8.7166499543e-02 -5.9775291741e-04))
0.12              	((-2.0850863629e+00 -3.9980486414e-02 6.0901131034e+01) (-9.7987038443e-01 -6.2362086100e-03 1.5534199826e-01)) ((1.4043342777e-01 -2.0034257741e+01 -1.5522433723e-01) (-8.5048711716e-04 -9.7803564989e-02 -7.5825195395e-04))
0.13              	((-2.7502414884e+00 2.3572552883e-01 6.6441750784e+01) (-1.1504629813e+00 -6.9972390459e-03 1.5544977258e-01)) ((2.7261141692e-01 -2.2330438027e+01 -1.3567575674e-01) (-1.0322972959e-03 -1.0353010159e-01 -1.7052452722e-03))
0.14              	((-3.3596462085e+00 4.3830941074e-01 7.6904131195e+01) (-1.2814702662e+00 -7.6831173116e-03 1.6192338937e-01)) ((2.6245784081e-01 -2.4907789578e+01 -1.2091428103e-01) (-1.5734626005e-03 -1.0841018258e-01 -1.2684024029e-03))
0.15              	((-3.6434589519e+00 6.8664888883e-01 7.8117879176e+01) (-1.3965299621e+00 -6.5603198746e-03 1.7334751910e-01)) ((5.8548981358e-01 -2.4887402587e+01 -2.2293746440e-01) (-1.2284034413e-03 -1.1385042162e-01 -1.8588822570e-03))
0.16              	((-3.3323753078e+00 4.7417889787e-01 8.9874262374e+01) (-1.4844271741e+00 -5.2729661458e-03 1.7324866861e-01)) ((7.1546116669e-02 -2.7907210924e+01 -2.3138871383e-01) (-1.3123298806e-03 -1.1651968422e-01 -7.6952184595e-05))
0.17              	((-4.8543713317e+00 8.9605897840e-01 9.1494409328e+01) (-1.5651320882e+00 -9.6041867479e-03 1.8358549597e-01)) ((4.2930604724e-01 -2.8455223938e+01 -6.7487681424e-02) (-2.3468924330e-04 -1.2250068070e-01 2.3760740151e-03))
0.18              	((-3.6333065096e+00 1.3801088336e+00 9.9480355062e+01) (-1.6517617509e+00 -3.2281256086e-03 1.8750180481e-01)) ((3.4069740449e-01 -3.0359553256e+01 -3.2389267655e-01) (-1.4698580962e-03 -1.2823850443e-01 1.9475245519e-03))
0.19              	((-5.2541171578e+00 7.4193534044e-01 1.0234125866e+02) (-1.7054099292e+00 -7.1155885667e-03 1.9608967326e-01)) ((9.8444935786e-02 -3.1401712676e+01 -2.1220280055e-01) (-2.1096640724e-05 -1.3282649271e-01 4.6366303889e-03))
0.2               	((-4.3941980529e+00 1.8068715491e+00 1.0768131072e+02) (-1.7839399720e+00 -3.2535838672e-03 1.9990765472e-01)) ((1.2285462613e+00 -3.2687157893e+01 -1.7655883515e-01) (-1.0104534660e-03 -1.3729525501e-01 2.2018971041e-03))
0.21              	((-5.4998316371e+00 3.6025995265e-02 1.1151259376e+02) (-1.8265838977e+00 -8.9402704041e-03 2.0972657624e-01)) ((5.6373105196e-02 -3.4041214752e+01 -2.2223166971e-01) (8.3513764668e-04 -1.4103258111e-01 4.9487319167e-03))
0.22              	((-4.6648657973e+00 1.8764674649e+00 1.1264546080e+02) (-1.8956339033e+00 -5.6756588998e-03 2.1032885044e-01)) ((1.0155742783e+00 -3.4112777186e+01 -1.9429610815e-01) (-1.8925924765e-03 -1.4506241840e-01 5.8761603244e-03))
0.23              	((-4.9468510185e+00 4.7448345958e-01 1.1751748957e+02) (-1.9133944758e+00 -9.3459748942e-03 2.1805044779e-01)) ((3.1258166118e-01 -3.5660156987e+01 -2.4089679156e-01) (4.7998979840e-04 -1.4621143895e-01 2.2613720210e-03))
0.24              	((-4.8173404262e+00 1.6956321693e+00 1.1656351172e+02) (-1.9613295383e+00 -7.0554725100e-03 2.1928908323e-01)) ((8.3898845681e-01 -3.5244514132e+01 -1.6885444262e-01) (-1.9879471719e-03 -1.4950975886e-01 6.9049492828e-03))
0.25              	((-4.7473536556e+00 9.3591403109e-01 1.1850261284e+02) (-1.9723762950e+00 -7.7188998447e-03 2.2382248489e-01)) ((-7.5512063667e-02 -3.6072223154e+01 -2.6661282431e-01) (-2.1267005161e-04 -1.5044263853e-01 2.5709693465e-03))
0.26              	((-4.6558654272e+00 1.4778316898e+00 1.2110755958e+02) (-1.9997008012e+00 -7.9365893345e-03 2.2346593784e-01)) ((8.7367095415e-01 -3.6244505335e+01 -4.3626270271e-01) (-1.5691719606e-03 -1.5182000699e-01 5.6781387750e-03))
0.27              	((-4.9300093111e+00 1.3038569111e+00 1.1964069789e+02) (-2.0089926672e+00 -8.7694948510e-03 2.2971333600e-01)) ((3.3634097249e-01 -3.6322176973e+01 -1.7337799215e-01) (-3.7583493507e-05 -1.5312105381e-01 2.7110140959e-03))
0.28              	((-4.8110327144e+00 1.2505531760e+00 1.2299522051e+02) (-2.0241072681e+00 -7.7218012879e-03 2.2413526696e-01)) ((6.6057437865e-01 -3.6826320423e+01 -6.1055886246e-01) (-9.5893153377e-04 -1.5320310340e-01 6.4062318411e-03))
0.29              	((-5.1342352702e+00 1.5039665132e+00 1.1987000971e+02) (-2.0250931473e+00 -8.0134542404e-03 2.3142025892e-01)) ((3.8623098867e-01 -3.6328153597e+01 -2.8871725865e-01) (-9.3798825238e-04 -1.5458828940e-01 3.1168899003e-03))
0.3               	((-4.8864522333e+00 1.1344482848e+00 1.2249817765e+02) (-2.0314216907e+00 -9.3779992972e-03 2.2526929482e-01)) ((7.6151044021e-01 -3.6796466943e+01 -6.7182410330e-01) (-4.4293242062e-04 -1.5368813568e-01 4.7904542182e-03))
