/*--------------------------------*- C++ -*----------------------------------*\
  =========                 |
  \\      /  F ield         | OpenFOAM: The Open Source CFD Toolbox
   \\    /   O peration     | Website:  https://openfoam.org
    \\  /    A nd           | Version:  12
     \\/     M anipulation  |
\*---------------------------------------------------------------------------*/
FoamFile
{
    format      ascii;
    class       volScalarField;
    location    "0.1";
    object      k;
}
// * * * * * * * * * * * * * * * * * * * * * * * * * * * * * * * * * * * * * //

dimensions      [0 2 -2 0 0 0 0];

internalField   nonuniform List<scalar> 
110452
(
0.02352081324
0.02252920498
0.0228733955
0.02198823954
0.02276485599
0.02216781786
0.02184634515
0.02182707949
0.02463048953
0.02168309452
0.02311331776
0.02239571027
0.0219010997
0.02180783521
0.02365810579
0.0217014228
0.02169122263
0.02583996079
0.023037901
0.02166950346
0.02356652571
0.02291952253
0.02203451003
0.02191003962
0.02455491182
0.02170924094
0.0217307556
0.0242118147
0.02275065469
0.02168485819
0.02167409422
0.02383972942
0.0260650592
0.02222994225
0.02167235001
0.0243676564
0.02370855686
0.02227976915
0.02216945187
0.02588498468
0.02177814695
0.02177477033
0.02528201363
0.02320392488
0.02168929487
0.02169540612
0.02331776757
0.02579627045
0.02222363008
0.02167618158
0.02166336704
0.02260470515
0.03088046682
0.02431415205
0.02192833548
0.02162930089
0.02567632379
0.02528555872
0.02287223519
0.02268899181
0.02779235451
0.02193439455
0.02195939846
0.0270321997
0.02420545843
0.02174738971
0.02172665884
0.02402785182
0.02741522618
0.02246974365
0.02168247059
0.02167914568
0.0227675956
0.02828014743
0.02451793422
0.02218605511
0.02167600778
0.02166399474
0.02231346113
0.0275594287
0.02977728897
0.02325757394
0.02203768135
0.02163564776
0.02791632562
0.02782070735
0.02424718143
0.0238474155
0.03091799001
0.02237156958
0.0223817928
0.02936619253
0.02586130159
0.02190286396
0.0218722803
0.02562448608
0.0303831893
0.02322569352
0.02174981926
0.02170989044
0.02334313051
0.02992251155
0.02552206219
0.02234865368
0.02168079449
0.0216685973
0.02272445087
0.02742354794
0.02978723238
0.0239061746
0.02221637875
0.02166926547
0.02163676552
0.02214101145
0.02519076791
0.0385897309
0.02612971566
0.02278899578
0.02201247492
0.02167252963
0.02970120782
0.03083312556
0.0271764501
0.02645145848
0.03382243815
0.02352388855
0.02349318371
0.0324114761
0.02931635079
0.02239000338
0.02224972319
0.02818743178
0.0333866952
0.02462073759
0.0219493943
0.0218511024
0.02496653431
0.03332081685
0.02863243085
0.02320317854
0.02176873255
0.02170720486
0.02318979115
0.02924727553
0.03177781636
0.02444848447
0.02245225083
0.02168467873
0.02166968316
0.02277186813
0.02781443582
0.03386002459
0.02927200437
0.02427713995
0.02234680654
0.02165767125
0.02165448289
0.02221058723
0.02493227895
0.03738211876
0.03662994299
0.02591251443
0.02324971762
0.02173527376
0.02166683688
0.0299504607
0.0318115134
0.0286107811
0.02905837529
0.03457933745
0.0261307527
0.026124867
0.03343871721
0.03221720314
0.02378319735
0.02328560299
0.03135235648
0.03573373909
0.02768577484
0.02261888636
0.02224644474
0.0276181582
0.03556686669
0.03230294325
0.02485173103
0.02204573628
0.02185559699
0.02503777394
0.03357129831
0.03608305637
0.02762925528
0.02360352738
0.02179626208
0.02170523797
0.02322665597
0.02884953711
0.0356470182
0.03011148252
0.02477645175
0.02265155042
0.02169423619
0.0216628034
0.02280767125
0.02822766872
0.03612441247
0.03517653339
0.02946727841
0.02530733977
0.02251460196
0.02166009841
0.02162147897
0.02210148719
0.02432553914
0.03175864959
0.04571030034
0.03140085291
0.02634710905
0.02386575175
0.02180703328
0.02163922539
0.02759015999
0.03078814796
0.02826701331
0.02984746845
0.03344161331
0.02751251864
0.02855298724
0.03343769923
0.03291672892
0.02677471321
0.02578793868
0.03238492353
0.03627242757
0.03107317512
0.02462357489
0.02334040449
0.03119124346
0.03684288727
0.03551746583
0.02852981487
0.02295841794
0.02228608101
0.02788313329
0.03610006304
0.03793947876
0.03205889233
0.02578222727
0.02215769251
0.02186891083
0.02532000884
0.03454604647
0.039223971
0.03610954173
0.02889783929
0.02419120738
0.02182784351
0.02170914277
0.02334933875
0.02940759081
0.03760056275
0.03706339919
0.03055172994
0.02604564701
0.0228133009
0.02168785637
0.02166379206
0.02289460822
0.02911762364
0.03769722052
0.03958173312
0.03649164082
0.03231127132
0.02625616549
0.02238760756
0.02167279676
0.02173859104
0.02240674711
0.02504161555
0.03279782806
0.05197678001
0.04357445523
0.03482850735
0.02677721357
0.02346891289
0.02202713939
0.02167192073
0.02560231424
0.02703201712
0.02547890232
0.02901021988
0.02735048057
0.02682355914
0.02927183265
0.03007805991
0.03097971247
0.0277495907
0.02801099778
0.0324273384
0.03516061183
0.03181448808
0.02734373061
0.02588877788
0.03222641096
0.03692144517
0.03624160906
0.03140718352
0.02550990608
0.0234559824
0.031052828
0.03711872516
0.03895641296
0.03541330942
0.03014579049
0.02330345592
0.02234553468
0.02833991964
0.03657356795
0.04019192935
0.03835332653
0.03353626107
0.02698453992
0.02227195136
0.02190073687
0.02570335172
0.03470612585
0.04048089268
0.0406309723
0.03689706062
0.03204105192
0.02466684091
0.02179784305
0.02173186513
0.02358652981
0.03017138934
0.0379991298
0.04102459083
0.03711027942
0.03306953906
0.02719345998
0.02264722489
0.02168200998
0.02213825207
0.02403930871
0.02964959119
0.03950305104
0.04219830382
0.04029610739
0.03800379263
0.03493127706
0.02522879262
0.02220667628
0.02167624697
0.03090140082
0.03191036604
0.02570633536
0.03675298721
0.05034535096
0.04874080438
0.03607991957
0.04309284981
0.02650100569
0.02285529945
0.02193247573
0.02167029478
0.02511732305
0.02521823643
0.0247034331
0.02661733443
0.02515913679
0.02479889375
0.02818167878
0.02574899537
0.02567058608
0.02632822672
0.0286079067
0.02868485213
0.02867162981
0.029537517
0.02790542089
0.02779439089
0.03199280659
0.03385348381
0.03470764652
0.03178248692
0.02756609287
0.02607870801
0.03186330944
0.03670022587
0.03814175427
0.03598457212
0.03163109354
0.02616784878
0.02363913589
0.03093142782
0.03717535807
0.04027305828
0.03925653782
0.03542263677
0.03059841615
0.02362471342
0.02249365531
0.02899993245
0.03601196838
0.04077358433
0.04111075771
0.03859382954
0.03453139316
0.02778007996
0.02216448352
0.02207256173
0.02649237864
0.03485433781
0.04023329767
0.04213609698
0.04065897949
0.03753077371
0.03314450947
0.02417811908
0.02176697178
0.02366143739
0.02706596366
0.03110731923
0.03776633432
0.0415096967
0.04104787876
0.03753189955
0.03434740254
0.02595085311
0.02244760013
0.02168234532
0.08769932288
0.1351339778
0.03795123095
0.06361163935
0.1038127963
0.08057366945
0.05713085003
0.06395447311
0.03194634683
0.02423440382
0.02218795163
0.02168562067
0.4432242923
1.01947442
0.2386671595
0.08492423556
0.1585710545
0.1252369153
0.1009052455
0.08433365516
0.03498639995
0.02601470982
0.02325156979
0.02222864425
0.02168514422
0.02499418451
0.02444475208
0.02436726043
0.02544493249
0.02463085627
0.02425908036
0.02625328918
0.02500935713
0.02440576959
0.02461238705
0.02744923114
0.02535789005
0.02504874561
0.02514632181
0.02564498516
0.02826337049
0.02721226564
0.02655605687
0.02720918735
0.02804348919
0.02757398618
0.02774294701
0.03070439136
0.03067150321
0.03169005694
0.03275279238
0.03119504275
0.02761346813
0.02649650426
0.03148606772
0.03479460925
0.03657785026
0.03746395657
0.0352532174
0.03153878012
0.02684231594
0.02421086189
0.03131675826
0.0359740446
0.0391112221
0.04019168487
0.03882450568
0.03536225866
0.03107142764
0.02332433953
0.02333852806
0.03106621885
0.03574672456
0.0396152376
0.04139176828
0.040768959
0.0379898396
0.03508575988
0.02694565779
0.02203929619
0.0295914425
0.03838940304
0.03570785974
0.03913697445
0.04179025344
0.04175814466
0.0394042829
0.0376728666
0.03181096591
0.02356116852
0.02175024218
0.1939488309
0.2294767995
0.04386258599
0.03689778969
0.04037476745
0.04123924097
0.03923860872
0.03744245548
0.0326015348
0.02472296447
0.02235206314
0.02169007449
2.061966645
3.563581059
0.7109881667
0.2154634345
0.5674435421
0.5416835465
0.4096104759
0.2464455326
0.0446945472
0.02918209286
0.02389627194
0.02221757806
0.02170263887
3.569430527
13.34271882
6.177274091
0.5465005942
0.6621852583
0.6178206411
0.2228204639
0.2504339769
0.07463639864
0.03097506153
0.02626628599
0.0243304107
0.02303912374
0.02198766708
0.02500788215
0.02415915164
0.02426145192
0.02447126355
0.02426370367
0.02401679186
0.02548839824
0.02476402401
0.0239473668
0.02413601094
0.02599037187
0.02487081097
0.02431303263
0.02421669727
0.02441325979
0.0270778104
0.0251131607
0.02483268639
0.02478722994
0.02473851134
0.0250955543
0.02812616492
0.02603713189
0.02555332124
0.02569032511
0.02594887251
0.02634406044
0.02712431578
0.02816435061
0.02952489541
0.02716315283
0.02763853431
0.02895275238
0.02946605374
0.02988159478
0.02805708817
0.0283745018
0.03172989569
0.03100867844
0.03107897105
0.03363921604
0.03415838838
0.0333181312
0.03175459709
0.02625354614
0.027694563
0.03491108409
0.03486472002
0.03408856185
0.03725200431
0.03791707245
0.03637808251
0.03552117112
0.03060079422
0.02292860074
0.04617556254
0.06422165323
0.03654083534
0.03577681756
0.03855706715
0.03958649659
0.03761489917
0.03761922323
0.03431349935
0.02567616422
0.02195117482
0.5167070035
0.6137403179
0.06673132824
0.03705933236
0.03874708686
0.04032802243
0.03863323285
0.03812692314
0.03695299679
0.02873688295
0.02321166931
0.02174954987
4.462031019
4.819033595
0.9581776776
0.04558706116
0.03553246678
0.03727781262
0.03730738306
0.03720399846
0.03670690891
0.03015998457
0.02442065322
0.02245199267
0.02170957806
15.67088784
32.24574329
13.30232442
1.563161236
2.712003796
2.903080095
1.749606405
0.9472638615
0.2354058609
0.03578251602
0.02894891925
0.02433166505
0.02266228602
0.02183435423
5.95788285
61.56902019
60.69315551
12.68300641
4.067542865
3.823930951
0.567546533
0.7059959205
0.2412275941
0.04557379536
0.03442208895
0.02956838158
0.02616249954
0.02471872586
0.02351317351
0.02522724385
0.02412127716
0.02427612502
0.02396687313
0.02392735583
0.02395526578
0.02457473421
0.0244461699
0.0237279201
0.02386771856
0.02538160706
0.02469655282
0.02397677123
0.02381018544
0.02397500102
0.02589085804
0.02479758057
0.02433306831
0.02416485707
0.0240137631
0.02424633509
0.0269183698
0.02497349164
0.02472407103
0.02464703872
0.02455896392
0.02450129953
0.02489239
0.02851350428
0.02558606629
0.02510186902
0.02514738732
0.02525185733
0.02522831943
0.02551013385
0.02684369271
0.03190653323
0.02931881973
0.02582315025
0.02568503688
0.02619147426
0.02639695304
0.02681413441
0.02929317421
0.02770192992
0.04042204041
0.03601531715
0.0287920053
0.02660390714
0.02772137872
0.02870523273
0.02897240166
0.03221161562
0.03157188886
0.02540544255
0.08452561804
0.1001616061
0.03593565977
0.02860822373
0.02929758547
0.03187142918
0.03161799867
0.03453135489
0.03520457252
0.02991289063
0.02262082412
1.010636048
1.102345491
0.08143366385
0.03201143082
0.03035891095
0.03359856582
0.0334278843
0.03539201263
0.0374520859
0.03313656412
0.0248621363
0.02191042536
9.585627083
10.58193317
1.5014779
0.04859341192
0.030927951
0.03191779987
0.03382568783
0.03585514843
0.03876399889
0.03610336678
0.0275714885
0.0232122796
0.02177663323
33.92200439
36.10113549
14.21510397
0.9722488165
0.1320853768
0.0527519666
0.03912023606
0.03591851159
0.03845747055
0.03630838775
0.02968867304
0.02526928976
0.02300074701
0.02186310865
27.79998926
92.73705572
67.37637378
17.78630595
12.16272442
11.04678321
5.372170789
2.238962522
1.50723415
0.05319240536
0.0342822873
0.02922270887
0.02547973398
0.02347797891
0.02246915703
8.270777606
99.46691216
184.2573829
102.3307745
22.61493055
20.92810963
1.496981107
1.216745656
0.7994992865
0.08682952817
0.04729100982
0.03710363678
0.03024214407
0.02560023854
0.02296773477
0.02575495685
0.02424934712
0.02445320111
0.02388588758
0.02388943818
0.02398840382
0.02393501358
0.02385620742
0.02365807712
0.02378226336
0.02455591345
0.02446695351
0.02371685466
0.02360533611
0.02375287738
0.02536572604
0.02465946213
0.02407758181
0.02386008404
0.02365022836
0.02381126169
0.02587555945
0.02478397297
0.02441948959
0.0242543736
0.02402435645
0.02390501391
0.02418831686
0.0272592329
0.02490433398
0.02467982791
0.02467565462
0.02458031578
0.02441582208
0.02440927445
0.02473762012
0.0327724576
0.0255701544
0.02490725826
0.02493139841
0.02509373751
0.02503336322
0.02497995837
0.02524546725
0.02701383119
0.06328688232
0.03358601911
0.02546070158
0.02510935501
0.02538779672
0.02555979897
0.02555210672
0.02621047891
0.02997954177
0.02734678381
0.1743464734
0.1134136726
0.02851713385
0.02552316291
0.02560616494
0.02603741609
0.02617971012
0.02741105393
0.03345178667
0.03136302989
0.02459229668
1.748930841
1.450476837
0.09117381727
0.02673608229
0.02590959811
0.02644156414
0.02667923327
0.02895100136
0.03626994184
0.03494775597
0.02850060156
0.02241740864
15.61729606
13.20990857
1.626980233
0.04311689237
0.0269359496
0.02696361993
0.02752772125
0.02996381962
0.03757030987
0.03762678573
0.03173926649
0.02462189105
0.02193045121
47.60688481
51.00244878
18.27608798
1.167896943
0.1349706859
0.03726581929
0.02811359028
0.02924315938
0.03838913226
0.03940551403
0.03512888002
0.02821821022
0.02386774776
0.02196360697
45.62565191
94.10578602
62.57187223
16.82157102
3.405327885
0.8720495904
0.2311857924
0.05823234221
0.03979406442
0.03926788132
0.03601204087
0.03089114369
0.02675187706
0.02409154123
0.02259218344
31.76785588
165.2304417
188.0671681
81.032153
47.64508694
39.38728886
16.96899848
4.429259241
5.451218324
0.436881462
0.03800844115
0.03234902936
0.02745375947
0.02402419805
0.02226367218
6.862113338
130.2343221
291.855032
330.0617955
126.8522379
113.812143
9.544661529
1.860979986
2.516895128
0.4783461522
0.04923868764
0.03437238749
0.02703457133
0.02372109362
0.0218433214
0.02669348193
0.02470674912
0.02482688403
0.02394661434
0.02402716153
0.02418872301
0.02383343249
0.02373554275
0.02367811365
0.02378163781
0.02402149701
0.02387597288
0.02354770643
0.02354013982
0.02370324114
0.02466021651
0.02442431751
0.02378340937
0.02360358274
0.02349126418
0.02361549171
0.02540104906
0.0246751417
0.02418128121
0.02400199104
0.02371328644
0.02354263549
0.02375070367
0.02604864034
0.02475150972
0.02447746186
0.02445912172
0.02425956581
0.02400011783
0.02388657426
0.02406994879
0.03138999065
0.02495594308
0.02463770611
0.02479741083
0.02487691052
0.0246515986
0.02439979935
0.02430845754
0.02472080814
0.06846041636
0.02750464559
0.02485911004
0.02489664533
0.02524455041
0.02530925489
0.02499978765
0.02484834902
0.02545938117
0.02728077611
0.3400711411
0.1024901093
0.0258113781
0.02495011213
0.02522202061
0.02554812467
0.02545262203
0.0253520147
0.02692435295
0.03089603685
0.02703212637
2.543493512
1.533075534
0.04552252139
0.02549542289
0.02518962432
0.02555305675
0.02564520567
0.02578511142
0.02940896364
0.03476978194
0.03104513242
0.02387713732
22.47033579
14.76447193
1.424008268
0.04318025699
0.02612636038
0.02561427761
0.02568234438
0.02603384617
0.03234568694
0.03781594625
0.03462645151
0.02770691418
0.02236586189
62.84702953
54.28258597
18.01847151
0.7282791934
0.117736795
0.03752827192
0.02683901877
0.0265646606
0.03429238828
0.03947186315
0.03712042268
0.03151813153
0.02529176415
0.02214814946
77.96219808
107.378992
70.63184415
20.13880116
4.231911074
0.77737518
0.1313906328
0.03415037929
0.03234793253
0.04026089471
0.0390367457
0.03453258413
0.02930628739
0.02516273411
0.02282352668
40.76911261
161.4946952
178.2131215
81.52061647
26.33233288
11.85453007
4.773412361
0.9379150339
0.106060958
0.0393018939
0.03914351191
0.03364491201
0.02881821804
0.02496540708
0.0224870864
19.51362029
238.9012211
395.0555683
230.9721242
117.5308337
94.37816305
56.56330228
9.534950913
19.36861856
2.911040038
0.06816550738
0.03432390357
0.02664950529
0.02321613032
0.02182614895
1.531115441
132.5936443
426.9254629
591.8648016
338.6181675
210.8929885
61.89316395
29.14637083
21.32447339
4.190103512
0.1348743203
0.03088183137
0.02491140506
0.02257571287
0.02169751174
0.02818787224
0.02560161585
0.02546243968
0.02427360481
0.024445849
0.02464161788
0.02387847926
0.02379343479
0.02388393321
0.02386795283
0.0239588795
0.02366292336
0.02352816905
0.02354677479
0.023726368
0.02446483699
0.02386306708
0.02351402756
0.02347264875
0.02345181847
0.02358715709
0.02501899416
0.02443576266
0.02382259438
0.02369258554
0.02346666068
0.0234022844
0.02356438424
0.02548778821
0.02464424436
0.02423837154
0.02420006069
0.02396231827
0.02364569764
0.02349683007
0.02364693318
0.02862139865
0.0247930968
0.02447110895
0.02471207769
0.02473171601
0.02443577046
0.02404379883
0.02381016235
0.02400821364
0.06413795611
0.02618024479
0.0246484783
0.02493606996
0.02555054118
0.02554227005
0.02486882784
0.02432009693
0.02431313916
0.02482068132
0.3729183894
0.05302657355
0.02539465775
0.0248938394
0.02553398457
0.02613705449
0.02563743869
0.02491064009
0.02488749566
0.02610652581
0.02744877949
3.171521782
1.076842316
0.03351564127
0.02524323005
0.02514950367
0.02579260803
0.0257786826
0.02537340776
0.02550137934
0.02921477437
0.03127634172
0.02657161997
26.63499951
14.39731066
0.3946250125
0.03147773113
0.02618927737
0.02560650299
0.02559365287
0.02552115525
0.02625179124
0.03361313071
0.03506173885
0.03058852618
0.02351397568
72.6750271
52.65940768
13.69077393
0.5421474458
0.1335698567
0.03869994942
0.02699288491
0.0256748327
0.02700847807
0.03706791302
0.03787542384
0.034233335
0.0283305235
0.02263108798
93.15566072
98.61172039
55.55502584
13.01107113
3.908941547
1.055273832
0.2096459298
0.03913594215
0.02833232576
0.03842741879
0.03946669702
0.03613039191
0.0318238313
0.02668196149
0.02308792247
73.45241521
165.5955156
184.7290323
98.95437172
34.98881825
12.36592461
3.968234801
0.753734704
0.06431899117
0.0379268365
0.04030281516
0.03716519371
0.03180795891
0.02651283196
0.02294745338
21.39642976
233.8607934
404.7490799
283.4831837
104.2367232
50.83858382
36.36825196
16.45376384
2.540563928
0.08839589576
0.03947104002
0.0359554403
0.02831140276
0.02385869911
0.02193873854
3.721459489
259.6806781
680.5185029
521.9427665
245.9667739
163.7517702
176.0398558
33.72826605
69.35427574
13.06795141
0.5954215182
0.03653032707
0.02736182763
0.02271880691
0.02173800075
0.09282223306
65.59371124
468.7175265
813.5190082
672.9502418
436.0804988
488.243272
70.13721561
123.6149476
38.12643897
1.82987392
0.03697047412
0.02513171027
0.02232818354
0.02167949957
0.02999785693
0.02701289065
0.02656940847
0.02496882026
0.02518187713
0.0255356555
0.02415577164
0.02411364494
0.02437417164
0.02409511904
0.02410421958
0.02367883325
0.02363220097
0.02367144708
0.02388385401
0.02464456452
0.02360139868
0.02345880819
0.02345796334
0.02347972232
0.02364627948
0.02506352407
0.02390359
0.02346480478
0.02347147352
0.02339354307
0.02337330206
0.02354746737
0.02532273435
0.02441020487
0.02385833271
0.02379812637
0.02361426315
0.02339180924
0.02335801079
0.02350918201
0.02608973414
0.02464936448
0.02421888418
0.02444168469
0.02438687956
0.02410378573
0.02362977392
0.02345283304
0.02361051628
0.05348437315
0.02573345427
0.02447269476
0.02492932044
0.02561214595
0.02560230305
0.02472776638
0.0239689928
0.02379258155
0.02401376422
0.2913666114
0.03902451172
0.02529682926
0.02504095842
0.02655379065
0.02779571663
0.02656343587
0.02480475796
0.02427051136
0.0243611779
0.02515770224
3.164278987
0.3275738596
0.03201314528
0.02542044831
0.0256778365
0.02753895415
0.02743801045
0.02564232483
0.02481345727
0.02506996099
0.02736989087
0.02733541677
28.29095323
9.162642967
0.1449251978
0.02996885154
0.02580725458
0.02599336373
0.02637873452
0.02577094647
0.02522703034
0.02622203036
0.03162994897
0.03114164946
0.0260142857
83.69421041
43.2736984
4.869674072
0.1592606992
0.06205833697
0.0365446907
0.0280706783
0.02588273724
0.02545955904
0.02861837906
0.03592285143
0.03478737561
0.03078694375
0.02378914591
84.15396995
83.91917172
40.46357697
6.522854476
3.669026727
1.043907576
0.2352805804
0.04577404679
0.02627275382
0.03157364748
0.0385519762
0.03704399012
0.03378110977
0.02932945262
0.023692769
85.72364059
119.0532826
126.5097107
78.37999117
39.04621736
16.82565711
6.374057371
1.415266784
0.09743248044
0.03251599913
0.03955860405
0.03811128465
0.03360833678
0.02854129346
0.02370623179
32.06476309
201.1549526
385.4635198
328.5426214
162.6700178
67.54737942
28.20361265
12.43161069
2.710402305
0.0990140384
0.03983231244
0.03853658527
0.03209922736
0.02535394831
0.02219245832
3.814266987
249.9861682
706.3998252
658.3252201
317.0261514
141.9024732
119.8603029
85.45363019
25.08760083
3.490495839
0.06202587465
0.0368490712
0.02836735436
0.02328428621
0.02178117679
0.1668757291
133.1875196
838.5850859
975.8799644
501.8287074
266.4738236
270.6293651
35.79931824
181.5450968
49.47309939
6.804050461
0.05734404546
0.02838811993
0.02272958958
0.02170518989
0.02271318668
11.88238265
318.3653285
923.6642466
1019.026349
778.1665256
1040.910537
582.9995222
541.7069458
173.153997
26.72000675
0.2806017509
0.02472121416
0.0220596462
0.02166458738
0.03057554906
0.02890832592
0.02831200568
0.0261072298
0.02631732346
0.02711076313
0.02473122934
0.0247453406
0.02525326003
0.02463656317
0.02454751966
0.02392672862
0.02399633063
0.02398895223
0.02429349394
0.02547669498
0.02359705382
0.02349934895
0.02354449292
0.02366543382
0.02388620363
0.02599285046
0.02370568417
0.02337036244
0.02342979234
0.02339378459
0.02341703446
0.02364236284
0.02563436071
0.02407094296
0.02346512941
0.02345358575
0.02340677335
0.02332902097
0.02333108305
0.02351637318
0.02560855563
0.02440286177
0.02383751464
0.02392089254
0.02384374755
0.02364919585
0.02335150502
0.02333912846
0.02346491905
0.03314604134
0.02512421056
0.02417342241
0.02463721942
0.02524119404
0.02524749656
0.02434807066
0.02355869982
0.02343427234
0.02361333911
0.2366125772
0.03513001817
0.02496347029
0.02505375859
0.02689787194
0.02830951177
0.02692254528
0.02465678672
0.02390284576
0.02378592526
0.02414193643
1.631045062
0.1652329884
0.03242667553
0.0257037258
0.02699186211
0.03122271705
0.0310984472
0.02666554492
0.02455973382
0.02425340951
0.02453227484
0.02570260811
24.65536259
2.664048973
0.105538002
0.03195576945
0.02626755505
0.02803968603
0.02941143054
0.02759841499
0.02518688768
0.02480141721
0.02559661765
0.0285328874
0.02700346824
86.59937337
29.3278443
1.411982507
0.0955863428
0.03959826817
0.02957635633
0.0272559606
0.02616139231
0.02530864897
0.02527560386
0.02804997775
0.03288340239
0.03130347251
0.02633350037
78.58396441
65.77102276
19.71433428
2.009484633
0.9117288602
0.3385067286
0.1116720286
0.04316527047
0.02636692201
0.02582702035
0.03230112015
0.03625297351
0.03421847743
0.03196878689
0.02469902107
83.22769362
87.74196148
80.31797777
44.56479312
33.5025409
18.08110092
6.83025317
1.601358407
0.1358237547
0.02746717655
0.03551258737
0.03823860734
0.03482264818
0.03123484031
0.02507305003
44.28135029
135.5565697
263.2415472
285.9963795
188.9179298
98.94108717
50.0471705
20.61022041
3.873905313
0.1454008983
0.03652684856
0.0388175786
0.0343314892
0.02776135291
0.02265983667
5.359209842
196.9171173
596.5954171
733.1320345
469.6512566
229.637043
104.5203135
65.82097531
33.28256862
4.892193014
0.08175355259
0.03882847053
0.03360297352
0.02485150231
0.02196838601
0.1246095917
102.54556
855.3657992
1092.022376
758.0205505
348.7344529
244.5761247
227.0286551
99.0514791
39.7209672
3.064661792
0.03863164015
0.02954128908
0.02321212616
0.02173900764
0.02377213237
24.46034463
735.7367546
1314.212485
1022.798672
517.8686499
396.6187122
278.1671065
342.6969953
144.462289
57.24618972
0.9963646112
0.029204286
0.02285608067
0.02168492739
0.0216328398
0.7965420884
138.2863855
818.5410805
1328.470808
1560.142322
1799.62724
1598.200024
1504.322225
401.9647821
122.3907519
6.367296757
0.02693932535
0.02223064506
0.02166649426
0.03054881003
0.03073444322
0.03030853064
0.02773533826
0.02806976251
0.02950324785
0.02563362065
0.02571221088
0.02674551773
0.02578630949
0.02518355705
0.02447599467
0.02475747804
0.024562754
0.02523630784
0.02700573041
0.02377155471
0.02372986405
0.0238540173
0.02411534682
0.02444032951
0.02838946715
0.02373926759
0.02337425375
0.02347863189
0.02352940962
0.02363261535
0.02398312971
0.02727107995
0.02404153308
0.02335608298
0.02337258814
0.02337148472
0.02333771153
0.02338327613
0.02370549039
0.02617306686
0.02426162599
0.0234795443
0.02346337111
0.02342211893
0.02338758925
0.02328178076
0.02332583823
0.02345321006
0.02681272802
0.02443357714
0.0237730188
0.02401023296
0.02433290475
0.02433720389
0.0237522163
0.02331490314
0.02329955875
0.0234538411
0.1122369543
0.03069207383
0.02422466783
0.02474981735
0.02651904991
0.02787927659
0.02659942153
0.0242560681
0.02353082395
0.02344121161
0.02374452586
1.230542635
0.120834267
0.03080034494
0.02561034657
0.02757796699
0.0328937778
0.03303245786
0.027031701
0.02436439865
0.02383970829
0.02385829455
0.02432843508
8.325594168
1.200049981
0.1076855258
0.03411911444
0.02772965635
0.03255115572
0.03572404162
0.03175758179
0.02556983414
0.02435192719
0.02437336866
0.02482436256
0.02609742875
53.64231978
12.84324043
0.8083087476
0.1001222066
0.03636248027
0.02877592143
0.02981019499
0.02864710986
0.02603107051
0.02482429532
0.02501699782
0.02637717441
0.0292947902
0.02768876785
67.46308255
46.23734586
8.382148666
0.8410576372
0.2753695824
0.1023077765
0.04558505523
0.02992117377
0.02561939172
0.0250354381
0.02583333821
0.03021109542
0.0331282201
0.03265847445
0.02648168407
80.50551668
62.4004248
41.44072653
17.5550759
10.98488316
5.560295244
2.055096827
0.4631815419
0.06461197805
0.0263140737
0.02707703853
0.03482144756
0.0348871174
0.03211770843
0.02722004765
57.00398415
97.32571686
147.9138195
179.886211
163.3070539
109.9182782
56.47556344
22.20458745
4.082623641
0.2059950276
0.02941770285
0.03720656678
0.03534278294
0.03049774523
0.02375489042
8.164394777
131.6800747
375.1535875
629.2332306
527.9071797
315.7507408
185.4978375
106.5474861
40.77099045
5.396333324
0.09669792033
0.03832077867
0.03542874035
0.02742267485
0.02239486238
0.2065910126
69.86548357
670.7833707
1122.765986
960.9123625
579.3964672
285.2220018
197.6271812
154.1078854
52.42153555
3.977764547
0.05191854422
0.03462658845
0.02507368259
0.02189982654
0.02342295164
11.86615843
725.852107
1355.553067
1284.70194
770.3044689
483.6757129
361.175982
273.9054642
181.8722047
44.92740052
0.5066565834
0.03011345403
0.02327735945
0.02171899288
0.02169974109
1.551798472
352.8593352
1310.743372
1695.148063
1384.238923
952.2146897
649.9591856
874.5620256
342.3151624
198.8454301
21.92606484
0.03783156447
0.02292183648
0.02167692419
0.02165582316
0.04625669422
32.93149541
497.8543389
1198.454118
2399.051
4199.297851
4135.000986
3376.190044
888.782632
354.503197
53.64061233
0.3239951653
0.02210666568
0.02165027588
0.02977731862
0.03122997942
0.03086881206
0.02981005604
0.03044300324
0.03162125418
0.02689007791
0.02707038707
0.02913204857
0.02769659223
0.02584092347
0.02535587962
0.0260631614
0.02567545549
0.0269877552
0.02915091549
0.02418811304
0.02425085031
0.02450319619
0.02497088701
0.02558165917
0.03300580906
0.02403953342
0.02350209185
0.0237071488
0.02395721886
0.02413136954
0.02473101244
0.03096146543
0.02444725809
0.02335622782
0.02337752085
0.0234471851
0.02349572647
0.02362421963
0.02425217466
0.02865788595
0.02444046915
0.02339756502
0.02334731848
0.02332831263
0.0233499094
0.02329110711
0.02342336662
0.02355253362
0.02643428791
0.02437381572
0.02350889124
0.02346345427
0.02353029642
0.02355146004
0.02338453376
0.02326147516
0.02327001932
0.02342908101
0.0375423096
0.02534294742
0.02372112511
0.02407989102
0.02515888487
0.02613678081
0.02534966849
0.02364395067
0.02327756362
0.02329807706
0.02350119283
0.7316758528
0.08569077923
0.02537351419
0.02482439891
0.02735279982
0.03188412961
0.03258218634
0.02660592429
0.02399928923
0.02352384307
0.0234989047
0.02391632774
5.484709904
0.7956524294
0.09639245086
0.03266225591
0.02809491863
0.03521155912
0.03809557264
0.03425735018
0.02569011625
0.02409860885
0.02387096098
0.02401774728
0.02451291256
27.09452041
6.604980128
0.7958748937
0.1273971861
0.03815648586
0.03360025793
0.03670864908
0.0349029441
0.02823197673
0.0247431313
0.02437504474
0.02456823909
0.02514405373
0.02742705769
50.03676229
27.60808758
5.358161475
0.7305469322
0.1667946735
0.05052097298
0.03196165465
0.02823099881
0.02646653751
0.02503757551
0.02479389788
0.02535906777
0.02737835018
0.03161867574
0.02808547985
69.45259281
44.13925264
24.64816193
7.229202025
3.248476781
1.367924444
0.4419175287
0.1123873805
0.03240044046
0.02513883241
0.02500591897
0.02693504423
0.03205151303
0.03210804893
0.02980408534
68.02475391
72.1242195
76.37862582
85.47961963
76.43303817
49.78963479
23.0130706
7.112728284
0.9830374272
0.06709602485
0.02584410134
0.02984310631
0.03500207014
0.03133463343
0.02619663526
13.92212497
96.90257977
192.9178267
393.8765371
437.1094356
340.128576
214.6118969
116.5475796
36.61364744
4.940548593
0.1299246721
0.03370900273
0.03597422458
0.0304947892
0.02351946106
0.4230206269
47.77612138
387.0058509
900.2344468
982.1009968
717.1472411
454.3517262
304.0133652
177.4019969
55.26375281
3.6242961
0.0599276339
0.03584372566
0.02792587001
0.02231042351
0.02658309628
7.241452672
474.7284013
1254.018667
1398.46606
1103.137068
665.6279214
455.7249796
401.3053827
215.7259582
51.63162686
0.9409331657
0.0352220306
0.02544702696
0.02187334443
0.02181419077
0.5643049601
280.6313414
1315.449556
1664.217444
1609.568324
1001.928122
698.6410902
705.5808466
456.1459912
204.4438449
12.9967568
0.04151982122
0.02345082498
0.02171304739
0.02169158223
0.0694761102
80.9659208
994.3558534
1764.075141
2530.731048
3194.668382
2292.553163
2208.118732
800.7904263
455.0175084
121.850315
0.9023128951
0.02280805853
0.02167355226
0.02164920801
0.02272301889
3.563578383
176.9515386
830.6023894
2112.415469
5479.101775
9052.158933
3884.983808
1452.812363
704.4075473
224.7887572
8.137228321
0.02338749044
0.02165596819
0.02810081288
0.03116878364