/*--------------------------------*- C++ -*----------------------------------*\
  =========                 |
  \\      /  F ield         | OpenFOAM: The Open Source CFD Toolbox
   \\    /   O peration     | Website:  https://openfoam.org
    \\  /    A nd           | Version:  12
     \\/     M anipulation  |
\*---------------------------------------------------------------------------*/
FoamFile
{
    format      ascii;
    class       volScalarField;
    location    "0.1";
    object      nut;
}
// * * * * * * * * * * * * * * * * * * * * * * * * * * * * * * * * * * * * * //

dimensions      [0 2 -1 0 0 0 0];

internalField   nonuniform List<scalar> 
110452
(
0.0002168396976
0.0001628715122
0.0001440506181
5.181244375e-05
0.0001447500919
0.0001443306513
8.640246273e-05
3.138912173e-05
0.0006865849684
2.100645279e-05
0.0001679631322
0.0001309874281
7.125609946e-05
7.525743506e-05
0.0004183238864
5.564572507e-05
2.130333144e-05
0.0008766423029
0.0004241275248
3.702303047e-05
0.0001830346213
0.0001624237777
7.741987916e-05
6.611435452e-05
0.0005721490627
4.420897148e-05
4.987573438e-05
0.0005266739111
0.0003324378005
5.374736773e-05
3.057449708e-05
0.0003720291698
0.001174258251
0.0002042401017
3.417927263e-05
0.0002173534367
0.0002046131505
8.882351064e-05
8.023278936e-05
0.0008221022376
4.570335606e-05
4.34909591e-05
0.0007938204946
0.0004533329773
4.479448253e-05
4.322496123e-05
0.0004071899708
0.0008326218202
0.0002090871728
4.967939453e-05
3.284991807e-05
0.0001997769551
0.001739907377
0.0006720621861
0.0002077054432
2.940396301e-05
0.0002823576929
0.0002920314811
0.0001191066629
0.0001093584961
0.001028416269
5.17534959e-05
5.10146679e-05
0.001140968903
0.0007177760254
4.473394646e-05
3.612515545e-05
0.000638212887
0.001282227145
0.0003225151327
4.243584437e-05
3.779208328e-05
0.0002346799763
0.0009928780828
0.0006685592217
0.0001663902594
4.380057012e-05
3.144466403e-05
0.0001681956661
0.001134905781
0.001684417126
0.0004441433479
0.00020272818
2.816106679e-05
0.0004040249657
0.0004584507644
0.0002076262451
0.0001718986373
0.001420383982
7.436531192e-05
7.23224466e-05
0.001366377783
0.0009313558917
4.687293839e-05
3.89117934e-05
0.001015578739
0.001948897566
0.0005267728636
4.204416636e-05
3.158335458e-05
0.0004679644016
0.001664815122
0.0009437050975
0.0003575181974
3.712564406e-05
3.427295041e-05
0.0001769090319
0.0009067721215
0.001207220396
0.0004379466499
0.0001496066819
3.87394807e-05
2.932786827e-05
0.0001502139136
0.0005415026022
0.001571805525
0.0008603410095
0.0004234840693
0.0001797870211
2.812145456e-05
0.0005306763613
0.0006925278807
0.0003840098582
0.0003322071452
0.001836696033
0.0001560080637
0.0001298443995
0.001749658123
0.001349056719
7.033046968e-05
5.763215646e-05
0.001316222907
0.002226930349
0.000800438519
4.449211612e-05
3.372062393e-05
0.001075335106
0.002480821693
0.001710733423
0.0006275059476
3.619846236e-05
2.921346053e-05
0.0005019143479
0.001550551834
0.002126640837
0.0007448673435
0.0004495698281
3.244113871e-05
3.129432116e-05
0.0001534543952
0.0008407801975
0.00130602051
0.001191806142
0.0004151749166
0.000145495881
3.623864983e-05
2.760385586e-05
0.0001394123384
0.0004966364851
0.001735895501
0.001619210046
0.000902855014
0.0004556466273
0.0001640947728
2.809986795e-05
0.002426961711
0.001735208795
0.000386776324
0.0005531340698
0.001873196204
0.0003299610969
0.0003070626526
0.001868228415
0.001558547649
0.0001675557775
0.0001117070773
0.001712238079
0.002537553762
0.001249623127
7.534740824e-05
5.055798706e-05
0.001500511995
0.002694884534
0.002087479209
0.0009233430903
4.101585299e-05
3.192589735e-05
0.00128003149
0.002493322698
0.003054638141
0.001640044173
0.0008040876651
3.225953995e-05
2.735708638e-05
0.0006077817779
0.001707818434
0.002768864651
0.001848147113
0.0009309432165
0.000521568262
3.026640585e-05
2.891192134e-05
0.000144408855
0.0007755004249
0.001546434413
0.001432070703
0.001179464945
0.0004920654916
0.0001479392166
3.844650761e-05
2.631093408e-05
0.0001301893588
0.0005046396433
0.001102108211
0.001411374445
0.001323888487
0.001007133655
0.0004952916796
0.0001761519894
2.950279769e-05
0.003982449596
0.003530283043
0.002092491786
0.0004919336404
0.002119001188
0.0003129052625
0.0005050846474
0.00180702467
0.001531204475
0.0003513113666
0.0002989346031
0.001561353744
0.002592845454
0.001313874859
0.0002133816455
0.0001159395746
0.001635226885
0.002765561286
0.002423119327
0.001279345964
9.25021692e-05
5.074166665e-05
0.001656668907
0.002576157512
0.003025543912
0.002002126967
0.001118019097
4.31612552e-05
3.096809448e-05
0.00138591653
0.00260458083
0.003049595848
0.002984978568
0.001819735106
0.000819706023
3.105044627e-05
2.58261444e-05
0.0007182287985
0.001870121101
0.002987852774
0.003018175039
0.002079459268
0.001151417937
0.0005262529001
3.222783232e-05
2.580370942e-05
0.0001384981092
0.000757419175
0.001682535523
0.001450452515
0.001667655538
0.001365920582
0.0005655709623
0.0001485616606
4.367682817e-05
9.683665991e-06
0.000110372586
0.0004632702987
0.001260610553
0.001695305857
0.001544426871
0.001862941352
0.00132595569
0.0004650110883
0.000200223746
3.416592585e-05
0.001246693574
0.002120530757
0.00129843467
0.003422209481
0.002250760409
0.00224243571
0.001137662806
0.002098732831
0.002070073158
0.0009062748356
0.0004421042588
0.001418206197
0.003060795299
0.001325910121
0.0003437931755
0.0003095090334
0.001257548069
0.002668760292
0.002676366944
0.001132188985
0.0002617341512
0.0001268289613
0.001328857263
0.002296093958
0.003037355951
0.002136179459
0.001105994908
0.0001202599726
5.208867278e-05
0.001509729628
0.002386456138
0.003058963073
0.002998889556
0.001903405342
0.001034705667
4.848425417e-05
3.024200602e-05
0.001350655173
0.002225487369
0.003080126437
0.003013024509
0.00296778419
0.001694391475
0.0008193391338
3.226118748e-05
2.360460431e-05
0.000748125365
0.001854772253
0.003075475647
0.003084058324
0.002933830192
0.002366153732
0.001212737254
0.0005047788935
3.699130683e-05
2.325704055e-05
0.000144015104
0.0007321981834
0.001541337066
0.001473388953
0.001517639032
0.001713396563
0.001505546216
0.0005133320846
0.0001515062682
4.981126114e-05
5.625129482e-05
0.0003189544464
0.0005279220607
0.00125050059
0.001895133306
0.001231313679
0.001486646326
0.002313571894
0.001166148961
0.0004291550732
0.0002082467108
3.73158189e-05
0.0009863647391
0.0009894384895
0.0007642624564
0.001814844708
0.0007433488466
0.0009194959292
0.003870961306
0.001301538084
0.00122946047
0.003635836011
0.001072795733
0.00197882942
0.002344249936
0.002333009583
0.001116714837
0.0004087341671
0.001283402708
0.003256963459
0.003305479171
0.001347575291
0.0003156911874
0.0003230005972
0.001081072468
0.002478035356
0.003138129551
0.002627950855
0.001002602217
0.000288381752
0.000140174877
0.001129225493
0.002048185372
0.003084129768
0.003026978648
0.001863753202
0.0009053370435
0.0001418073381
5.366365839e-05
0.001370475943
0.001932022293
0.003094123562
0.003030743839
0.003015845173
0.00164861025
0.0009801620905
4.468135839e-05
2.899444642e-05
0.001294455545
0.001879077089
0.003111670317
0.003061312525
0.003015072253
0.00262032863
0.001557724225
0.0008149150917
3.627878835e-05
3.362346372e-05
0.0008699889908
0.001814054538
0.002763932052
0.0031046226
0.003054785554
0.002827311825
0.002282511657
0.001122259538
0.0004339012931
4.23182644e-05
0.0007553478691
0.002847994561
0.000857828471
0.001439148736
0.001526801229
0.001274190999
0.001639024488
0.001636271216
0.001351076056
0.0004338636525
0.0001683931663
5.480254136e-05
0.001949424202
0.01218289958
0.006594922882
0.001154683609
0.002297810934
0.002869069275
0.00283135481
0.002479515552
0.001770930796
0.0009063829175
0.0004505283939
0.0002075798955
2.142050415e-05
0.0009773873392
0.000806746047
0.0007674294498
0.001079784149
0.0007236043207
0.0006507599979
0.00137566701
0.0007081931908
0.0006130476702
0.0006891124202
0.004100698347
0.001021131343
0.0007216411027
0.0009316570741
0.001670767214
0.001079040159
0.001952695775
0.001458866203
0.001688950402
0.003441472321
0.001577196734
0.0003874329443
0.001196100739
0.00386945304
0.002728475773
0.003488666142
0.001497095648
0.0002938031354
0.0003413816408
0.001001256423
0.00244203673
0.00333199869
0.003210490022
0.003096575322
0.0009610814446
0.000310648521
0.0001568271638
0.001061208601
0.00180501513
0.003239032673
0.003129491968
0.003072647362
0.00182379336
0.0008793753499
0.000121781439
5.239583079e-05
0.001353010909
0.001718499272
0.003226388206
0.003112442386
0.003055161471
0.003055271518
0.001582169951
0.001006834777
4.206204605e-05
9.492544423e-05
0.001822853932
0.001717190404
0.002540446613
0.00312084751
0.003071793484
0.002973180678
0.002571620257
0.001620885203
0.0007618918575
4.192786041e-05
0.001896556351
0.01083068876
0.002495667413
0.002300375176
0.003223775378
0.003122753189
0.002783005858
0.002767497274
0.002232361546
0.0009204972886
0.0003557560877
4.550070267e-05
0.02744954824
0.03491533913
0.01390639548
0.002769664098
0.004185740144
0.003294816846
0.003442772824
0.002536345952
0.001605555451
0.001171063123
0.0004488299983
0.0002112052643
5.816033735e-05
0.01082384475
0.07531960473
0.04155405409
0.01237564448
0.006767817859
0.006846059648
0.004152228109
0.004056537543
0.002233560909
0.001307154177
0.0009113206046
0.0007005605162
0.0004345370255
5.122654738e-05
0.001047891979
0.0006627287179
0.0007176812808
0.0008984547093
0.0007246440946
0.000626543239
0.00109730552
0.0007776860905
0.0006038712115
0.0006101126866
0.00121225582
0.0006295171999
0.0006947735044
0.0005567399201
0.0005926526925
0.004277947199
0.0007939179794
0.0006649099162
0.0007690672151
0.0006554424506
0.0009127253584
0.001144281498
0.002042216431
0.0009199412016
0.001142980457
0.001100198076
0.001635359773
0.002187867325
0.0003853111409
0.001084511246
0.004349036743
0.00188749973
0.002239326626
0.004040479348
0.001591212666
0.0008412094968
0.0003884837029
0.001006899464
0.001902734717
0.003790700324
0.002785416437
0.003484521071
0.003543218207
0.001038966073
0.0002867969317
0.0001661718904
0.001121960847
0.001651554722
0.003548573834
0.003230975148
0.003134585023
0.003321479731
0.001980337253
0.0008974362792
9.514439793e-05
0.0002821974293
0.002561997074
0.001684578407
0.002674623608
0.00334016579
0.003170756991
0.0031809435
0.003167679745
0.001611666203
0.001050133593
4.496008878e-05
0.008275794961
0.01382012168
0.002785615313
0.002045123827
0.003208842123
0.003197013006
0.002800156378
0.002950446731
0.002525626041
0.00169393215
0.0006169694564
4.54911574e-05
0.03429307902
0.03904195008
0.01606169333
0.002507167458
0.001810624056
0.002398743566
0.00240732952
0.002684447925
0.002724701552
0.001961667378
0.0007610489107
0.0003272795187
4.645048013e-05
0.08717826908
0.1179514108
0.0668232379
0.02356000372
0.0207845393
0.02012573063
0.01002502956
0.007607177041
0.00273944714
0.001581930902
0.001156329105
0.0006484071575
0.000331180145
8.81655336e-05
0.03027652278
0.1333600062
0.1254056307
0.05177577165
0.038914427
0.02135392141
0.008677377753
0.004938687965
0.003385177641
0.001634300714
0.001529029695
0.001691404088
0.001204099281
0.0007034265812
0.0002194392733
0.001100252755
0.0006783603589
0.000783661062
0.0006610919964
0.0006221176259
0.0007166491326
0.0009461036089
0.0008100362166
0.0005510832696
0.0006351816475
0.00110371621
0.0007759747846
0.0006472823044
0.000537120347
0.0006104407841
0.001116321682
0.0006114572222
0.0007046028889
0.0006291444461
0.0005327228847
0.0005792334451
0.003172224381
0.0006956004953
0.0006301514162
0.0007551746955
0.0006965281378
0.0005575624753
0.0007102238884
0.001300218063
0.002168830558
0.0007352868119
0.000842560248
0.0009443065125
0.0007596093588
0.0009367558115
0.002671949678
0.0004261732284
0.001115100501
0.002262220604
0.001056324871
0.001262546514
0.001410420738
0.001435790913
0.002153709264
0.0002930779208
0.000596266897
0.001133264032
0.001658167416
0.001731629677
0.001559722376
0.002024909866
0.002589665213
0.003801199457
0.0009843244163
0.0002562489182
0.0009529038501
0.002656184068
0.001688867037
0.001975769135
0.001681896043
0.00205706221
0.00245561808
0.003631453607
0.001851187376
0.00103794587
7.882718982e-05
0.02007697525
0.01980374562
0.00310175833
0.001910193853
0.001863964633
0.002419590574
0.002353311318
0.003367856225
0.003074560411
0.001777661769
0.0009026966865
4.818987589e-05
0.05075552724
0.05943221243
0.01993116173
0.002435221582
0.001313385746
0.001659021138
0.002101453099
0.002505075974
0.002981898866
0.002804435261
0.001597386059
0.0005395607225
4.831550975e-05
0.1492602674
0.130321951
0.06966232331
0.01607371264
0.006215244671
0.002154087535
0.001573903518
0.002009869558
0.002880122173
0.002930191231
0.001797808031
0.0009248611913
0.0004425727966
7.175706568e-05
0.1114536041
0.2305501813
0.1748568727
0.07493721471
0.08416227169
0.1026601635
0.02646906299
0.01107353131
0.01050102494
0.001343805288
0.001363006673
0.001136875127
0.0008004392283
0.000413853171
0.0001643778127
0.05069018003
0.1570657222
0.2122745401
0.1306144169
0.07296279478
0.09792072277
0.008960176566
0.01130297769
0.007318120991
0.002107746447
0.001492285531
0.001546501912
0.001734852922
0.0008642387427
0.0001448988215
0.001199735646
0.0007003749537
0.0008619295497
0.0006811382312
0.0006717448238
0.000791103151
0.0006402791071
0.0006524431919
0.0006113778569
0.0007310864393
0.0009346039867
0.0008259178807
0.0006133000995
0.0005407318824
0.0006508960791
0.001083705308
0.0007767996708
0.0006917687135
0.0005747702931
0.0005066612702
0.0005941689281
0.001089900497
0.0006107395429
0.0008035148792
0.0006662926434
0.0006274973945
0.0005448888473
0.0006118760673
0.002107267468
0.0006413860593
0.0006544297541
0.0007896280423
0.0007202275094
0.0006987769216
0.0005346369713
0.0006261152257
0.001667685543
0.00206254921
0.0006642415485
0.0008044414299
0.0007770041856
0.000794661054
0.0006627963756
0.0007342172907
0.002373967968
0.0007803725176
0.00132706287
0.001583105965
0.0008789788529
0.0008584857106
0.0009044259852
0.0009809400532
0.00101193965
0.001821616998
0.0003019639135
0.002795935339
0.002867287267
0.001741532634
0.001097285546
0.0009166544659
0.0009509348587
0.001222267704
0.001647996212
0.003501075498
0.0009753001634
0.0002172545267
0.0233260118
0.02190723969
0.003564499734
0.001181163792
0.0008082747103
0.0008548276905
0.001045665581
0.002047355869
0.003317310535
0.001797602346
0.001182117757
7.488072026e-05
0.07283602991
0.06713597333
0.02093139371
0.001746466931
0.0007492240582
0.0008511164045
0.001035092697
0.001703365801
0.003221499681
0.003037669241
0.001864564094
0.0008208911302
5.54434397e-05
0.1662994042
0.1627872797
0.078914022
0.01722836719
0.006127005808
0.001620775682
0.0009636905081
0.001323303397
0.003025904397
0.003036876927
0.003004095578
0.001668788922
0.0007000339087
7.681590257e-05
0.1560770475
0.2384917336
0.1690364282
0.07155525134
0.03323642293
0.01861927135
0.005642231924
0.001742383499
0.002741262449
0.003054651295
0.003043013311
0.002010767812
0.001209728159
0.0005456893329
0.0001425081013
0.104415555
0.2682801073
0.2883346002
0.1639452223
0.1313749332
0.153048417
0.08917894537
0.02261081971
0.02796585409
0.002668656148
0.001333966098
0.001189144654
0.000920723766
0.0005143194342
0.0001491859939
0.05003758987
0.1693071138
0.2347654031
0.2471799094
0.142782173
0.1853404977
0.04519391498
0.005185219802
0.01746222829
0.00727990476
0.001703989275
0.001659331977
0.001094155818
0.0003750756216
3.231407926e-05
0.001398783449
0.0007239104664
0.001072403741
0.0007018232717
0.0007493216917
0.0009361136267
0.0006399217015
0.0006685914649
0.0006896840097
0.000816180805
0.0006602573451
0.0006424669009
0.0006259738797
0.0006216145025
0.0007372964408
0.0008779044743
0.0008174343783
0.0006134707772
0.0005727145367
0.0005415075519
0.0006564859704
0.0010983043
0.0007914190468
0.0007410663175
0.0006282666581
0.0005597801529
0.0004885166657
0.0005914158127
0.001084471501
0.0006106292723
0.0008936205175
0.0007810470265
0.0007261350881
0.0006461686506
0.0005599477846
0.0006173871708
0.001839129073
0.0006105685102
0.0006966123952
0.0008796292838
0.0008375523333
0.0007866647054
0.0007290383675
0.0005243922806
0.0006383380839
0.003034766236
0.001878476941
0.0006391805985
0.0008738139111
0.0008549967781
0.0008111549423
0.0008046953903
0.0006228151958
0.0008312399852
0.001637262382
0.005041358198
0.00365480588
0.001399882954
0.0008794154277
0.0008740649148
0.0008322153187
0.0008780776097
0.0008576711687
0.001301340312
0.001534099602
0.0003229031076
0.02790807355
0.0225545589
0.002708308146
0.0009701370941
0.0007929048288
0.0007790072063
0.0008449194373
0.001066062252
0.00257865823
0.003207117441
0.001058538311
0.0001799080208
0.09351968072
0.07232030224
0.02145719166
0.001629527456
0.0006245093719
0.0006041533747
0.0006825968868
0.0009776430962
0.002941373432
0.003102966175
0.001974635858
0.001200600855
7.981189988e-05
0.1979534654
0.1706179538
0.07942830772
0.01707880543
0.005772757949
0.001340307988
0.0006495498548
0.0009204252118
0.002951592672
0.003084560429
0.003028345621
0.00197629587
0.0008958904183
8.561307567e-05
0.2248102133
0.2604960864
0.1833329611
0.07710315215
0.03416352887
0.01529220533
0.006601074136
0.001600535291
0.001936184719
0.003098549369
0.003037778028
0.003076913211
0.001823056698
0.0007760031247
0.000161826439
0.1230957123
0.2776328802
0.2782363848
0.1658702505
0.08273599051
0.06125992898
0.04223702303
0.01786865595
0.005705732559
0.003188420426
0.003089832717
0.002455862816
0.001528047188
0.0007629946849
0.0001349547755
0.06779009305
0.2833241604
0.3897608474
0.2774207791
0.1976091326
0.2192852424
0.1703483199
0.039187331
0.09709630131
0.01716687161
0.001338690681
0.001438726977
0.0008459252186
0.0004092410185
8.242116022e-05
0.01212449503
0.1686490304
0.2760527253
0.3221758457
0.224370051
0.194423439
0.1384785217
0.04471787577
0.07522656576
0.03188718962
0.002554462261
0.001080675878
0.0005469995507
0.0002132620113
2.40093918e-05
0.00171184597
0.0007668997941
0.001468184077
0.0007011047559
0.0008601265065
0.001232410446
0.0006614420961
0.000735208422
0.0008197368237
0.001058544909
0.0006920129183
0.0006261339121
0.0007067197005
0.0007282758281
0.0008760060058
0.000707680602
0.0006526026273
0.0005921888263
0.0006158574267
0.0006296453583
0.0007569146336
0.0008822077616
0.0008122326054
0.0006372531974
0.0005805503225
0.0005582588702
0.0005400342209
0.000635492047
0.001136889804
0.0007882717976
0.0007978156278
0.0007150824308
0.0006545140498
0.0005576326576
0.0004849542979
0.0005725912202
0.00112603893
0.0006306496376
0.0009607685522
0.0008971004983
0.0009380869939
0.0008043614165
0.0006594122323
0.00054892962
0.0005658203804
0.00341682213
0.0006426465186
0.0007518809053
0.0009762656243
0.001088508367
0.001064203994
0.0008462167217
0.0007162269117
0.0005118855416
0.0007809643084
0.01250309924
0.003739600755
0.000672579464
0.0009718364392
0.001015277355
0.001124507336
0.0009337271533
0.0007813700612
0.0006250968112
0.001334488385
0.001176261185
0.03264783079
0.02087365654
0.002025553764
0.0009701631513
0.0009420028619
0.0009770584053
0.0009566261013
0.0008610246447
0.000894867101
0.003337843024
0.001339426074
0.0003289693708
0.1026965347
0.0728089626
0.01291461923
0.001180357997
0.0007909196733
0.0007531666871
0.0008092290502
0.0008406792363
0.001201901128
0.00353913657
0.002626555736
0.001197094512
0.0001657223745
0.2097736808
0.1677664998
0.06946957501
0.01988439465
0.004412638574
0.0009478407873
0.0006165247171
0.0006774796897
0.001138604991
0.003287696739
0.003063380688
0.0022046714
0.001276200228
0.0001120597458
0.2607729913
0.2582491194
0.1673681425
0.06449135387
0.03178916659
0.01676740523
0.008186040343
0.001680822895
0.001325031289
0.003216829325
0.003059744892
0.003051318922
0.00204410462
0.0009548668132
0.0001706485277
0.201258134
0.3039010617
0.2908331202
0.1841559817
0.09321029267
0.0556910489
0.03468472228
0.01459501668
0.004334639186
0.003166594673
0.00308649282
0.003069113343
0.002308021286
0.001099724145
0.0001669086891
0.07222536206
0.3019302726
0.3927721357
0.3186427562
0.1721604783
0.119493789
0.09429379052
0.07371355556
0.03012661678
0.004604091508
0.003123093799
0.002643718763
0.001430134493
0.0006302616109
7.367370656e-05
0.02808742413
0.2783563144
0.5136260814
0.4324301483
0.2878854465
0.2742813792
0.3436074111
0.1608654221
0.2133180343
0.09566567492
0.006382569399
0.001613159552
0.0008425988405
0.0002475556823
5.554579214e-05
0.00135696907
0.1218179514
0.2840492342
0.3642157008
0.3227705857
0.2610196014
0.3329370647
0.1219552893
0.1624490439
0.1031490061
0.02568967516
0.001396804238
0.0005956621781
0.0001796411361
3.359173084e-05
0.002065714171
0.0008977736409
0.001873963546
0.0006900901039
0.000973639053
0.001576447694
0.0006644697214
0.0007909963971
0.0009911015353
0.001614951932
0.0007720804175
0.0006690052982
0.0008265614762
0.0009161885183
0.00120706732
0.0007935024227
0.0006300219635
0.0006773472383
0.000721654434
0.0007726961107
0.0009352725693
0.0008020372015
0.0006352814188
0.0006194982481
0.0005908036519
0.0006266659748
0.0006424539489
0.0007570260851
0.0009165161765
0.0007818182068
0.0006609609028
0.0006399245193
0.0005929496087
0.0005625659427
0.0005315633089
0.0006407252575
0.001106929891
0.0008073641603
0.0008070941044
0.0008644906818
0.0008611047631
0.0007084953026
0.0005601763648
0.0004786181254
0.0005763702624
0.001692992785
0.0006792002569
0.0009684903732
0.001025400329
0.001350105282
0.001289457832
0.000876374242
0.0006404015411
0.0005325069882
0.0005098393809
0.01479878998
0.001004306672
0.0008412033454
0.001046773035
0.001496148938
0.002015184917
0.00134181191
0.0008359987189
0.0006860469024
0.0005214208211
0.001228498946
0.033009384
0.01459025957
0.000937213831
0.001115191576
0.001128561403
0.001732164328
0.00149520156
0.0009302298022
0.0007444799195
0.0007026104955
0.002646754034
0.0009208862011
0.105611374
0.058923113
0.01023344756
0.001375145759
0.001034022478
0.001085964862
0.001256353933
0.0009625709092
0.0007954334562
0.001277323252
0.003632253512
0.001279924914
0.0003203922953
0.2232612379
0.1490629089
0.03787242655
0.007150299567
0.001598141485
0.0009310399949
0.0008419129322
0.0008017470488
0.0007836535351
0.002174165341
0.003297806352
0.002484435597
0.001392445104
0.000192713532
0.2457575086
0.2331412432
0.1408839141
0.05134670438
0.03868581893
0.01998495215
0.009891325505
0.001600555543
0.0006731786093
0.002215797149
0.003183415025
0.00307175516
0.002276940513
0.001317769184
0.000197329316
0.240219775
0.2748445819
0.2477899985
0.1653699209
0.09866077798
0.06309509927
0.04129574068
0.0199669892
0.005930211714
0.002306135328
0.00315513923
0.003084260396
0.002470094015
0.001305786165
0.0002101434912
0.1012329027
0.3071784671
0.3916937163
0.3460200987
0.2248856578
0.1305779089
0.08395063958
0.05709463532
0.02534421107
0.004825591103
0.003195759662
0.003104498674
0.002290591509
0.0009960989242
8.884627625e-05
0.03074258428
0.2970164031
0.5278601501
0.5102296761
0.3170063764
0.2067714205
0.1988208237
0.1487588056
0.0858442732
0.03049483795
0.003680230997
0.002906238311
0.00169971579
0.0004937052264
4.830594348e-05
0.005679100946
0.165150847
0.5615181947
0.6068066752
0.4176759561
0.3229225811
0.4278953514
0.09326950952
0.3296524356
0.1428171729
0.04964691582
0.0017499578
0.0008377802601
0.0001894641002
4.910466794e-05
1.854588285e-05
0.05242391632
0.2240290818
0.3800431477
0.3729488626
0.3139610023
0.4275334757
0.3502924859
0.2656348703
0.1679341606
0.08034903121
0.004212876299
0.0005778690877
0.0001589572744
3.391058317e-05
0.002032153694
0.001148108257
0.001906597813
0.0007319500425
0.001076041776
0.00178489399
0.0006542253447
0.000821849815
0.001103870329
0.002562570079
0.00086788605
0.0006750537412
0.0009064270477
0.001241221271
0.001667169541
0.001019993813
0.000658203347
0.0007693668377
0.0008714196909
0.00099683392
0.001240846263
0.0009641048149
0.0005985071728
0.0007320566681
0.0006775100427
0.0007594495399
0.0008074199614
0.0009630747318
0.0008691429627
0.00062161927
0.0006332053244
0.0006285131777
0.0006222925991
0.0006395705473
0.0006513915172
0.0007797830653
0.0009271604514
0.0007629781725
0.0006712314221
0.0007184250012
0.0007426641602
0.0006423287594
0.0005694415073
0.0005325000774
0.0006584352448
0.001100841812
0.0008322502229
0.0007797596371
0.001005314684
0.001352371816
0.00126413518
0.0007880178159
0.0005489365145
0.000478150919
0.0005545110189
0.007575362868
0.0009537942734
0.0009470498311
0.001094234677
0.002155121629
0.003199269971
0.001892097757
0.0008493027772
0.0006077434977
0.0005167969868
0.0005122713077
0.02713586908
0.005184905283
0.001119217405
0.001086672533
0.001746561146
0.002796569018
0.003017722784
0.001356178377
0.000765135535
0.0006551719517
0.0005895036248
0.00280454178
0.09609705992
0.03168094776
0.003972729648
0.001665341616
0.001215060995
0.002144920987
0.003009597307
0.001543760861
0.000813361379
0.0007377960098
0.0009476370592
0.002513710742
0.000278989641
0.2249159642
0.1180021268
0.02337201221
0.005766430044
0.001597137206
0.001160427308
0.001414929765
0.001153601901
0.000824214216
0.0008510735483
0.002144075561
0.003447003371
0.001360442612
0.000353354848
0.2344518718
0.1990326527
0.08825940706
0.03276443216
0.02668536089
0.009979987216
0.002810559601
0.001097047256
0.0007301905303
0.0009274101312
0.002835316283
0.003212483368
0.002295532266
0.00168783839
0.0002495781063
0.239785153
0.2422089216
0.2060088254
0.1231582582
0.0980181007
0.07032025783
0.04374846585
0.0237887248
0.005436665605
0.0008856362733
0.003088750981
0.003079255732
0.002473988618
0.001669216246
0.0002933275735
0.1381705031
0.2767028892
0.3312050312
0.322253995
0.248307956
0.1716273623
0.1177948488
0.07380602105
0.03180479718
0.007038839036
0.003505244687
0.003062469061
0.00231779086
0.001279460592
0.0001196123521
0.03673192443
0.2874418911
0.4852976334
0.5474580542
0.422557524
0.2738766241
0.1788735738
0.1351976402
0.0913425844
0.0342546031
0.004549046753
0.002876339952
0.002437702109
0.001086175233
5.675509987e-05
0.003413958785
0.1507201102
0.5783356514
0.6594874263
0.5350629915
0.3347677066
0.3084284305
0.3040509879
0.1780298923
0.09843798519
0.02545274162
0.002797047558
0.002012962851
0.000565123827
4.113832694e-05
7.084760553e-05
0.06284316136
0.4880431066
0.6803667491
0.5434677964
0.412641149
0.3539647802
0.3870057526
0.3669051705
0.2367328804
0.1290186236
0.01696682898
0.0008333517393
0.0001652295073
4.029123666e-05
1.193940811e-05
0.01517859146
0.1687647679
0.3563130884
0.4021413511
0.4220693806
0.5080540659
0.4506664927
0.3576727379
0.2352598007
0.1482538693
0.05173371568
0.0005904074986
0.0001509410042
3.218791547e-05
0.001874762669
0.001460025891
0.001974835952
0.0009007306162
0.001191464458
0.001971085796
0.0006682317179
0.0008696350178
0.001112031047
0.001924247307
0.0009552833496
0.0006602892472
0.0008878541033
0.001694537323
0.001563857132
0.001339133654
0.00066121755
0.0007923960902
0.00101592127
0.001275614484
0.001484243032
0.001492449776
0.000609740632
0.0008477110539
0.0007614697812
0.0009078842019
0.001026772976
0.001187795226
0.001066254366
0.0005928970299
0.0007602067478
0.0007088836201
0.0007188172032
0.0007710665844
0.0008412627664
0.0009562798133
0.0009192332075
0.0006087488759
0.0006617476976
0.0006629325511
0.0007303334821
0.0006723881489
0.0006621907753
0.0006648585895
0.0008265982461
0.0008806966026
0.0007393575091
0.000659253177
0.0007992967434
0.001005804386
0.000979633301
0.000695569562
0.0005679030921
0.0005459761736
0.000694744039
0.002797859851
0.0009874632901
0.0007303405626
0.001064791749
0.002414511873
0.003459061865
0.002177244939
0.0007642498868
0.0005294368496
0.0004721017569
0.0005428925511
0.03007619462
0.003157974989
0.001039294436
0.001074338757
0.002848535378
0.001969191859
0.002066681386
0.001886722345
0.0007477438555
0.0005819978436
0.0005098140633
0.0005868377899
0.05790901593
0.02601356807
0.003614388884
0.001380934427
0.001726163496
0.002632465096
0.001880798615
0.00311525098
0.001007035864
0.0007110912784
0.0006518843246
0.000763971704
0.002587966167
0.1681332695
0.0689253467
0.02017826175
0.00633177476
0.001594437864
0.002123663823
0.002842193869
0.002596930873
0.001046607212
0.0007238244103
0.0008668996802
0.0013788604
0.001917261109
0.000339555262
0.2144885491
0.1603935213
0.05279837416
0.02175541663
0.01111884965
0.003132734559
0.001817703067
0.001231026719
0.0008754169578
0.0007197679655
0.001222011309
0.002627787766
0.002821018189
0.001658014237
0.0003476946559
0.2347959003
0.1973584395
0.1394957553
0.08046504778
0.06232593495
0.04892357102
0.03525959716
0.01401441902
0.001374251722
0.0007300537786
0.001530637771
0.00338598279
0.002343491504
0.001750779259
0.0004524972329
0.1686742773
0.2505656827
0.2678719261
0.2603015
0.2357659349
0.187796247
0.1290114141
0.08128713932
0.0419498594
0.007518378936
0.001576381697
0.003324732096
0.002018669918
0.001637000345
0.0001824561162
0.04919227128
0.2630626809
0.3902321582
0.5068498433
0.4623456765
0.3458917031
0.2612043596
0.1901860472
0.1066226696
0.0367883017
0.005700840998
0.003170237771
0.002170422522
0.00145308408
8.061536541e-05
0.005831288113
0.1377254229
0.510161847
0.6902608175
0.6315334657
0.4758855904
0.3111259183
0.2639566997
0.2348732868
0.12014187
0.02874867347
0.002987959267
0.002209049024
0.00140296342
4.467754032e-05
4.027620298e-05
0.04603758693
0.5024878374
0.7196337982
0.6559864764
0.4875277279
0.4160496329
0.3850157349
0.3101265126
0.2540034547
0.1075064779
0.01265394756
0.002044905266
0.0006957535215
3.371099341e-05
2.525195493e-05
0.01632410293
0.2834819802
0.6749964352
0.6581114375
0.5364061481
0.4639115233
0.322719083
0.4027155187
0.3422944471
0.269953482
0.07359501305
0.0009577507068
0.0001576884483
3.614727293e-05
2.275136663e-05
0.0007137919855
0.09632692051
0.2826129551
0.3824538042
0.4675628605
0.6818243728
0.6663598635
0.5227569424
0.3145572261
0.2397168713
0.1098827524
0.00582773948
0.0001419665204
3.007824411e-05
0.001787567732
0.001519746225
0.001760140949
0.001231302218
0.001438413094
0.002062953535
0.000782248582
0.0009917925664
0.001184482816
0.001452056601
0.001071847444
0.0006740374204
0.0008064107196
0.001450256204
0.001197670676
0.001610107923