/*--------------------------------*- C++ -*----------------------------------*\
  =========                 |
  \\      /  F ield         | OpenFOAM: The Open Source CFD Toolbox
   \\    /   O peration     | Website:  https://openfoam.org
    \\  /    A nd           | Version:  12
     \\/     M anipulation  |
\*---------------------------------------------------------------------------*/
FoamFile
{
    format      ascii;
    class       volScalarField;
    location    "0.1";
    object      omega;
}
// * * * * * * * * * * * * * * * * * * * * * * * * * * * * * * * * * * * * * //

dimensions      [0 0 -1 0 0 0 0];

internalField   nonuniform List<scalar> 
110452
(
5.692494587
3.014827991
4.818696895
3.011518779
3.229860817
2.80816729
2.258555905
2.274684845
9.580351922
1.906840479
3.514926408
3.088117494
2.368385891
2.016554549
4.651224761
1.872520502
1.889354058
10.76981684
7.473337884
2.784743563
3.889850822
3.44972697
2.468313413
2.232822765
5.300856595
1.874997491
1.69799995
5.25105728
3.927601927
2.053422602
2.462648682
7.142294816
12.88977822
4.894303989
2.80488813
4.53544723
4.111518282
2.818287194
2.493551666
6.224537515
1.872253695
1.823327875
5.979506921
4.467033115
2.070116056
1.741958947
4.564475168
6.715111091
3.151783818
2.102409909
2.684047305
5.067423734
17.7483395
9.911103881
4.919893185
2.68540923
5.58996239
5.203357204
3.495084448
3.127234451
7.398946489
2.164885947
2.002849835
7.086557307
5.577708633
2.016587026
1.7228112
5.185002602
7.66274105
3.375985182
2.133004985
1.722359585
3.526771421
7.970748156
5.930484629
3.029663851
2.034749909
2.729572287
4.618782939
13.58377193
17.2907494
7.432047603
4.910972065
2.67893326
7.321475121
6.930354716
4.917857885
4.15797314
9.066564147
2.854626956
2.610258812
8.312557739
6.910664605
2.156230819
1.728524451
6.411116073
9.28194913
4.408538724
2.050739356
1.657676039
4.109523657
8.736508947
6.798639505
3.158883528
2.034453195
1.717161699
3.276524976
7.65717533
9.079187982
4.975870354
3.033666534
1.918185731
2.707351114
4.458699238
9.040079072
24.55121215
12.69169614
7.043754551
4.640801904
2.682367846
8.49433216
8.9863007
7.138334331
6.015810457
10.50349474
4.424623846
3.709001045
9.852600067
8.891804527
2.89821843
2.38981873
7.82793525
10.52667837
6.122644597
2.182845589
1.609605568
6.041296395
10.38283286
9.072130742
4.295701361
1.901125931
1.654801224
3.842323475
8.645534009
9.935676702
5.908238922
3.227826653
1.880961681
1.704744367
3.261608404
7.352791104
10.67931297
8.780037437
5.162965137
3.103624573
1.835417644
2.683427714
4.36413889
8.136422506
21.53477484
22.62210704
11.78114909
7.194499695
4.487382782
2.664211705
8.508454636
9.631807133
8.19074387
8.029966273
10.91650864
6.772792805
5.799652996
10.44628535
10.08784548
4.730574436
3.512309577
9.451901428
11.57646107
8.479528203
3.110983172
2.288665277
7.708543821
11.32702404
10.48191549
6.264722099
2.130979947
1.607524214
6.031432882
10.63325036
11.81254692
9.024050467
4.806191606
1.743694767
1.639085466
3.851635272
8.775548274
11.39803535
9.810660931
6.412863984
3.469024808
1.786095026
1.687317357
3.303679187
7.485433869
11.49241817
11.57712951
9.040296563
6.079125748
3.192627638
1.904777144
2.593941777
4.268466014
8.314401488
14.80143942
32.38708232
17.09824416
11.6605464
7.233343662
4.649053761
2.683488633
6.622766958
8.721155666
7.586878792
8.748966254
10.24183721
7.662420559
7.79782559
10.47690373
10.37027041
7.097405944
5.732785121
10.02761551
11.76213441
9.688079944
5.394224186
3.62793292
9.417022917
11.91127231
11.62584522
8.891766494
3.530424022
2.333104331
8.018542969
11.50653122
12.53972174
10.52136177
7.378528506
2.254408906
1.616958225
6.272705263
11.05543204
12.86202269
12.09708576
9.729737695
5.591070515
1.676302401
1.624421886
3.984689305
9.140761209
12.15134185
12.28006948
10.29535446
7.750066281
3.698152302
1.870275745
1.598193058
3.3408091
7.831282056
11.97824388
13.19534751
12.0742055
10.39259564
6.843487021
3.124760371
2.019645912
2.020942957
4.406171829
7.887607652
13.73045564
30.65923461
28.21399708
18.69543951
13.4848057
7.127237721
4.871832458
2.79194522
5.096964484
6.389017553
5.301819121
7.802276206
6.688077746
6.537100804
8.411951446
8.480831827
9.030704575
7.8014615
7.522896638
10.01607022
10.91001679
9.967374874
7.393582336
5.846211972
9.93996933
11.86984832
11.78864624
9.861330831
6.080028668
3.790474211
9.358828162
11.96802847
12.82576477
11.64655424
9.353235915
4.008976065
2.388578566
8.265018278
11.74916384
13.13906981
12.78917606
11.05913065
8.14678113
2.447302181
1.623844551
6.652671801
11.14279599
13.14260746
13.48511178
12.43252819
10.6548
6.158116374
1.746485518
1.511818014
4.120325851
9.551746616
12.29618579
13.30214494
12.64908907
11.31711072
8.555858023
3.521754333
2.020246241
1.470601369
3.506688235
8.144236058
12.16088585
13.53095983
13.44562348
12.64509689
11.29119308
6.210555996
3.046410061
2.085593742
2.971217286
5.045138222
7.651163646
13.87423057
22.84866604
39.58439283
24.26933625
18.62611225
12.81497503
7.087912361
4.900183144
2.777723986
4.466800639
4.881246121
4.594490651
6.119039397
5.207114452
4.534370241
7.280279122
5.660215423
5.477087149
6.067344896
8.02253057
7.501197888
7.22501082
8.118679758
7.729220191
7.350541091
9.645712739
9.919775819
10.50003486
9.887594031
7.537988746
5.974461296
9.748364274
11.46422503
12.15429562
11.6778515
9.980643985
6.550752188
3.966616046
9.275330697
11.89921837
13.05815945
12.96888495
11.68408952
9.484720858
4.376484585
2.435800772
8.506165523
11.53797534
13.17774921
13.56457685
12.79701952
11.43634869
8.523226366
2.313601603
1.590339433
6.977977309
11.14510968
12.92980733
13.76406252
13.48524217
12.44849916
11.03953397
5.686544257
1.896616568
2.227680324
4.737057016
9.899941869
12.06518192
13.37028749
13.43723742
12.58490014
11.55483893
7.778749209
3.264295997
2.111356067
11.00496212
16.42654146
9.51301493
12.67319982
14.21901454
14.44706415
13.27412663
12.75361057
10.31145257
5.29199704
3.041398923
2.051683503
22.59449607
45.22787145
28.69601551
16.26412767
23.546043
43.65071153
35.6385025
27.04788525
17.38966778
11.85765974
7.489215597
4.905760078
1.917456166
3.908466688
3.994152235
3.891174595
5.270315676
4.647850323
3.828424997
6.016750692
5.057114692
4.307149983
4.392183818
6.69379428
5.343387592
4.970377123
5.069795561
5.504451554
7.676122811
6.465093663
5.937399509
6.309524407
7.065012737
7.375370572
7.265698868
8.831865956
7.926573315
8.761727041
9.388342434
9.332231056
7.658269374
6.185315537
9.510992303
10.12103703
10.97775049
11.66923314
11.06699826
9.841425908
6.890179601
4.168636646
9.337275232
11.24509035
12.07496992
12.84287842
12.63552276
11.53878226
9.615191641
4.057690075
2.357627163
8.860977478
11.36528615
12.2785093
13.29880626
13.34428945
12.43419427
11.54820225
8.146319947
2.16776518
3.734808925
8.670574905
11.21073936
12.25800985
13.39067459
13.59405991
12.89140386
12.3485873
10.56580825
4.874286263
2.028813753
17.0440579
21.18764601
12.16403499
11.57544928
12.52406347
13.20605199
12.66798285
12.25549149
11.07998251
6.541729564
3.192631619
2.069239413
75.11841822
102.0634812
51.12670409
18.66185081
23.07918556
21.96210633
19.66836629
15.24116143
12.42239238
9.003669252
5.079195213
3.16053129
1.903806884
88.67183652
177.1480196
148.656352
44.15936441
27.73544209
47.51638327
53.66286678
39.04286652
25.78427447
17.49017397
13.04884803
10.06578477
7.494708997
2.972618668
3.735911936
3.061546697
3.142947602
4.089773211
3.748997558
3.047999377
5.397951187
4.66511641
3.584820588
3.672721229
5.861236294
4.899527117
4.173764287
4.171415211
4.166546922
6.329627072
5.107484928
4.751048751
4.716363965
4.787979818
5.075718079
7.455042758
5.617606324
5.295669305
5.4194076
5.573032785
5.83125529
6.935948914
7.352458494
7.92441479
5.977907203
6.456229376
7.313121778
7.292712375
8.21019247
7.82039339
6.57291928
9.451133298
8.060364774
7.90127511
9.577284631
9.802893336
9.403352902
9.816190203
6.63429007
4.250242877
9.686047608
10.41445181
9.198307251
11.11379234
11.69327587
10.95237227
11.36916554
9.503516006
3.572634532
6.13151624
12.34094216
11.3203789
10.26368423
11.54345909
12.48487245
11.7190738
11.87595536
11.3399079
7.377659383
2.185214167
33.1038853
44.40918338
14.67397536
11.24943777
11.54420818
12.61428163
12.17551187
12.11921292
12.17664514
9.665336213
4.385636332
2.017846577
130.1146222
123.432195
59.65608095
12.83952847
9.870618733
10.70318118
11.34421503
11.63303777
12.22916362
10.13400055
6.071378322
3.389271633
1.924385059
179.7568134
273.3815821
199.067343
66.3480895
52.50154819
49.61566331
38.41350719
25.39528336
16.77284651
11.7728611
8.690725877
5.8617314
3.88281237
2.250258241
104.3495894
461.6752948
483.9747242
244.9602586
103.7606729
87.60963736
65.40530436
59.37533073
38.67727446
27.88580765
22.51237439
17.18874781
12.93797654
9.5989814
5.672168
3.766998117
2.811183712
2.997629235
2.810497408
2.771337199
2.605729258
4.131185423
3.84316313
2.779014372
2.77940434
5.312423435
4.541262558
3.532638189
3.416362704
3.355685842
5.747772549
4.735560251
4.122770497
4.029473711
3.970615324
3.981831163
6.112861023
4.89103581
4.599231312
4.52386865
4.503571291
4.57466885
4.88330131
7.39564053
5.220038404
4.879030514
4.991694556
5.127198611
5.071866206
5.351283229
6.557871382
7.728696314
7.507501501
5.179034746
5.229388187
5.702647998
5.775473543
5.818320292
7.670839319
7.76745337
8.071266841
9.768880714
6.720590451
5.504394811
6.24774889
6.991581565
6.767743176
8.474066141
9.876289916
6.074152981
10.33718609
14.91311216
10.07732374
6.403117354
6.721824188
8.272039955
8.171554998
9.508962149
11.46829737
9.264907885
3.170578776
50.33806314
55.66348467
15.27033096
8.332127237
7.154153912
9.00183106
9.069831076
10.24847125
12.18128152
10.90990361
6.418471733
2.180102015
188.8587825
178.0504668
75.33318531
12.6623697
7.676629567
8.218976959
9.389046181
10.50489603
12.59241382
12.07824873
9.017091552
4.467383805
1.938934819
227.267477
277.0150018
204.0572765
60.48688554
21.25183864
11.74523757
9.449281399
9.153684764
12.42447247
12.23849125
9.638985589
6.683721327
4.340254269
2.34849141
249.4310478
402.242389
385.3229945
237.34944
144.5151631
107.6053537
73.25348847
41.20235007
35.64740184
13.20311526
11.28264566
8.824109088
6.528116353
4.556398223
2.981588579
130.2158949
633.2821114
868.0145192
783.4569637
309.9515392
213.7250322
89.10441458
85.35628762
64.65760591
41.19543329
31.69032254
23.99197601
17.43210833
10.61243274
4.791825984
4.110949458
2.822592693
3.010986525
2.491515528
2.5383281
2.537229547
2.764378545
2.711032318
2.327707635
2.351700379
4.030215166
3.903574983
2.81010252
2.535512061
2.469277302
5.18497279
4.387870485
3.522251723
3.383961536
2.997067472
2.958083846
5.691114211
4.629311126
4.064105075
4.00588884
3.804031432
3.776924513
3.936661035
6.062907918
4.730745364
4.442863817
4.460211325
4.461622401
4.337608153
4.542949553
4.764028494
7.687864247
5.049049887
4.639257499
4.674335658
4.950665295
4.855378138
4.885644637
5.197041071
6.82310024
10.30343342
7.583937358
4.845616328
4.72977078
5.076574571
5.25256512
5.174801796
5.518354466
8.300443754
7.453956644
17.77931264
15.45535823
6.2500852
4.763334058
5.029035501
5.414111604
5.374961249
5.916414065
9.554717313
9.873620899
5.439817557
74.97770543
66.2099314
14.51147919
5.253835179
4.983565414
5.502534172
5.530746353
6.393234783
10.93353831
11.48102991
8.830595223
2.976183647
214.417179
196.7634922
77.72918781
8.355767601
5.23975186
5.588691362
5.854279295
6.788996551
11.66236647
12.38672902
10.33137849
6.200831374
2.249732027
286.2721308
313.3073349
231.5949373
67.78918342
22.02881638
8.815820803
6.10205294
6.77451096
12.03937302
12.97567039
11.69366257
8.893978813
5.392913685
2.421283387
292.3277486
394.5872028
370.1679744
235.0850664
102.4577131
46.83586023
23.10561382
10.9220602
11.08058438
12.85511095
11.77624863
9.555475357
7.33982437
5.09534352
3.158281348
304.2444765
615.8877874
652.2532085
494.2635829
362.6649756
257.3518214
146.7846315
73.26764441
67.906808
19.80406033
12.55461107
10.13971421
7.596724783
5.115688097
2.807134564
137.1391659
769.2194329
1243.177351
1335.309963
888.4319049
614.070559
170.7711888
99.19831865
66.68465528
47.57390623
28.89612533
20.71459356
13.22445653
7.101591195
2.288261897
4.876870254
3.147194884
3.222478676
2.470671733
2.536113425
2.588181267
2.408507448
2.363790838
2.231488444
2.246830729
2.753777926
2.867871003
2.235470516
2.145035367
2.204925285
3.888315616
3.862425043
2.918263257
2.630035733
2.280935592
2.198545728
5.123676404
4.346762053
3.487289689
3.401152241
2.948328598
2.67020236
2.755239178
5.69033481
4.486055271
4.00723156
4.026464107
3.857337049
3.606593725
3.683297356
3.783330772
6.269607046
4.638646447
4.338281187
4.398045338
4.587189124
4.377469632
4.328117289
4.450181551
4.755297078
10.40951677
5.129485736
4.472940416
4.50773085
4.985042797
5.011623168
4.771766817
4.762582185
5.375885938
7.207915722
25.97292795
12.55034415
4.779051229
4.429658244
4.83982784
5.197186614
5.053335341
4.973770636
5.92824817
9.192686715
7.264288769
91.13826892
67.97186949
7.750725017
4.536509773
4.557719067
5.027093638
5.025796315
5.041303837
7.040183085
10.84144331
9.677806013
4.839319329
240.2738719
204.1539025
66.36508126
6.65273776
4.604116258
4.811574588
4.894273167
5.052231095
8.543954631
12.18703141
11.30091697
8.400256256
2.942149102
317.4838561
318.1528365
226.8520131
42.64227943
16.51600713
7.956952722
5.170283781
5.267477192
9.462824491
12.7965926
12.25765726
10.11940118
6.62349977
2.721048193
346.7911753
412.2096169
385.2653868
261.1929681
123.8721881
50.83473332
19.90443224
8.016012874
8.466120957
12.99346562
12.8504273
11.22312583
8.809331796
5.934019764
3.398523983
331.1984784
581.6843273
640.5097652
491.4721973
318.2693858
193.5119786
113.0148864
52.48940023
17.21390137
12.32644653
12.66848904
10.72965038
8.265391026
5.785804993
3.092022435
287.85357
843.2080792
1013.584538
832.5696618
594.7641803
430.3899434
332.0449672
140.9266544
143.799861
51.55984654
13.37353903
10.9279183
7.295500744
4.502625227
2.082375553
77.38161333
786.2105345
1546.535947
1837.086204
1509.195037
1084.709691
446.9513625
316.9018088
283.4699839
110.4809077
26.72127027
14.73392923
8.952381127
5.147345977
2.000486672
6.073438143
3.961300682
3.782169892
2.704493424
2.76325956
2.910112393
2.374978443
2.332024454
2.276850489
2.245075105
2.421438257
2.327566597
2.047173231
2.027963334
2.142855424
3.095389925
2.906529815
2.304109721
2.128475968
2.002685566
2.016721169
3.952442766
3.880155844
2.93120758
2.797409507
2.310399867
2.089802104
2.110394033
5.076373385
4.186678307
3.501091011
3.471848464
3.11757675
2.728680322
2.529375884
2.51942543
5.747404793
4.394314984
3.866875074
4.146613099
4.108452358
3.836592617
3.561412404
3.520600287
3.669465706
8.482285125
4.711291458
4.191417376
4.41327851
5.070460646
4.98553651
4.514336899
4.205113256
4.486605482
4.807495947
26.52906035
7.090303022
4.436739173
4.346128969
5.098831679
5.712692011
5.238178326
4.636705249
4.85318016
5.762905869
7.453943604
97.14341521
51.58858076
5.55855649
4.337948477
4.543420375
5.278389286
5.244150278
4.884426082
5.162636726
7.192753405
9.606775899
6.897811517
259.3563609
197.7409119
30.55645741
5.017992718
4.40549832
4.711452832
4.856470308
4.815134433
5.433631538
9.497551182
11.24083331
9.418875316
4.533619228
346.4449249
313.8851185
197.0758268
26.36798736
13.44265814
6.285668353
4.858512248
4.657355571
5.644762189
11.27473607
12.36392982
11.08295623
8.456309936
3.328844621
357.2289455
381.8472668
331.9330967
201.7490772
122.9645809
62.93602485
25.6101755
8.465227936
6.252655623
11.94574374
12.89868875
11.84090973
9.886397329
6.988014571
3.699906668
364.9661941
544.8994309
635.1719234
537.3399809
375.3750497
222.0451016
114.4087235
51.64329173
14.83837256
11.36693556
13.05780299
12.10942365
9.823501319
6.823761788
3.445677266
296.2453791
774.5523208
1030.493365
889.6583343
605.4625558
425.4495924
385.6908472
223.2121855
84.32954641
19.199422
12.63844206
11.51283236
8.226239961
5.105313478
2.338849153
132.4955778
932.9074453
1324.929803
1206.999023
854.3911368
597.021098
512.3284601
209.6675943
325.1214833
136.6002113
29.07824076
11.56712433
7.245960549
3.567185069
1.773688861
12.6493791
538.456857
1650.12776
2233.618722
2084.918117
1670.681039
1466.473168
575.1059756
760.9459847
369.6248796
71.22993611
13.95321865
8.576074386
4.657219772
2.537755449
7.273993439
5.276856611
4.820222804
3.385129011
3.407401944
3.731408887
2.572038934
2.515577129
2.611471563
2.414379044
2.397102051
2.272859128
2.041634035
2.029705796
2.196727182
3.001918449
2.246842884
1.982751579
1.949182153
1.915214947
1.995220157
3.628467386
2.968129519
2.23533987
2.219600919
2.003114902
1.864820885
1.963068884
4.166939901
3.806213148
2.933732746
2.872700725
2.561430362
2.156213585
2.003778465
2.021782053
4.969201543
4.112094473
3.338272295
3.674096603
3.451697122
3.170916918
2.667749166
2.402741019
2.525008334
6.981683979
4.462705669
3.71622992
4.260414128
4.978692864
4.911944572
4.114107332
3.40226616
3.551515229
3.608244581
19.6885429
5.795141845
4.154182659
4.344902946
5.935748854
7.280275225
5.944506404
4.351854596
4.217265108
4.479723223
5.092168511
95.85998293
22.45154433
4.958179641
4.282917691
5.028461418
6.981721674
6.727521657
5.097074588
4.622011226
4.995507667
6.649893899
7.393035819
267.8779012
155.5016784
14.16191337
4.732595485
4.413221061
5.184671503
5.832965307
5.111749215
4.870485412
5.683701115
8.708078571
9.586033878
6.606687018
374.87121
290.3049372
128.5809893
12.18473757
6.392588418
5.17194286
4.876282789
4.655660111
4.866547149
6.858276093
10.89295356
11.15872209
9.439745366
4.644976582
342.4268517
359.9499196
287.2121862
127.0355041
94.84164554
52.23467978
23.78655725
7.810194189
4.836749626
8.019461032
12.11025766
12.05955169
10.78330179
8.516219616
4.25504848
356.8550531
433.1658343
510.5521269
473.9676403
395.7623096
266.6713787
154.351448
70.88033004
16.42984857
8.238494657
12.53783151
12.35670137
10.62620457
7.96502124
4.103026843
316.7425041
654.8471789
984.0942138
949.4899939
723.3454521
517.2956129
335.9547086
217.7369313
106.9436447
20.51853054
12.46411391
12.41314277
10.08656028
6.268108632
2.593493347
124.071124
841.6577857
1338.232911
1290.252706
1000.06238
686.2770147
602.8558811
574.4441806
292.24548
114.4618589
16.85379931
11.94644133
8.635933354
4.170039271
1.912071677
29.38418083
806.4598035
1493.424601
1608.222197
1201.478563
825.1941463
632.4662425
383.8265948
550.7166858
346.4086173
137.0488045
12.92304017
7.687953512
3.339325923
1.833616394
2.616966877
226.6595761
1421.089289
2430.41942
2732.348723
2478.545169
2434.6878
1664.32209
2039.291548
1031.082636
332.5492087
27.8298363
8.711513234
4.494529319
2.67368828
7.625017288
6.904273121
6.282942254
4.540652672
4.539491743
5.192977765
3.168053413
3.078738948
3.458067811
3.001344239
2.610745521
2.451364495
2.278546522
2.236436334
2.574035446
3.314088425
2.162665741
1.95046239
1.935116286
1.963385348
2.133473102
3.840821543
2.376632923
1.800273686
1.959717647
1.847618444
1.810333985
1.967673573
4.007082975
3.068978414
2.194378245
2.149574706
2.063813121
1.86543631
1.786932576
1.929978479
4.319638027
3.763974785
2.820567117
2.917930614
2.756319028
2.537713207
2.073545493
1.943269489
1.939874988
5.082213483
4.171117286
3.233282854
3.782398034
4.345748024
4.398027756
3.471472516
2.537122188
2.39300066
2.607845893
14.59870651
5.306165925
3.689825846
4.287367613
6.349800989
8.32868745
6.503544009
3.885450047
3.373814041
3.626663719
3.748720797
60.10660862
13.31471535
4.622356069
4.277839403
6.183417842
11.16465099
10.30526971
5.736545372
4.229768695
4.196198184
4.635331813
5.493940702
256.5672936
84.08993928
10.05247729
4.708578395
4.88755186
7.36175761
9.654396244
6.635530282
4.794602704
4.680390919
5.346149369
7.456829695
7.356655766
385.0299096
248.5365738
60.41339078
9.066534038
5.184624308
5.110934039
6.030601255
5.400026818
4.802833911
5.077525772
6.723492409
9.539707059
9.632239569
6.734223701
335.1816464
330.45343
223.3680798
61.33128215
34.16588084
18.19302211
9.41836076
5.48049191
4.559163168
5.174990912
8.816645401
11.28503072
10.91360093
9.799407039
5.163011184
347.0927727
362.2573476
389.876393
361.8498163
341.7995315
257.1250658
156.1255472
67.3158574
14.08907561
5.391968573
10.19090557
12.2320677
11.14844652
9.360365813
5.129591588
320.4833832
489.899365
794.7993612
887.4874601
760.8210901
576.4878388
424.8672248
279.2484965
121.8025473
20.65694321
10.42062732
12.41838612
10.89903238
7.62630195
3.223203117
145.9006008
685.0675682
1229.339226
1339.156542
1111.449282
838.4689408
584.3250699
486.8500309
364.3707788
142.8185578
17.97157889
12.38928298
10.72129085
5.993496975
2.09804837
20.41752209
680.3707867
1479.012745
1655.865347
1416.694039
1041.72071
792.9752917
746.6795509
556.3755492
403.5125985
120.4059601
11.74880728
9.371338492
3.96786333
1.82961142
3.485900672
389.2284236
1507.52412
1931.623623
1881.985794
1255.009713
1120.503322
718.7673688
934.0206213
610.2333091
443.7048554
58.72426796
8.162740964
3.339102028
1.725499208
1.4457247
52.47799774
819.4031678
2297.252352
3303.492178
3696.411997
3542.196316
3546.303197
4205.862134
1708.599518
825.5484492
123.0782802
7.503488153
4.364384547
2.694704027
7.637389247
8.258691508
7.711734917
6.039308136
6.192175951
7.18535714
4.179786126
4.062765355
4.963202987
4.213573902
3.152833667
3.021969966
2.998583032
2.864700131
3.589233905
4.373169555
2.271429766
2.108770612
2.130109231
2.34717968
2.682897961
5.125643013
2.318209686
1.729974363
1.940409067
1.875613602
1.890645795
2.219242169
4.487218747
2.765315534
1.752833005
1.835532821
1.851305426
1.762372227
1.739747586
2.014841602
4.321798332
3.207910769
2.145054368
2.0957424
1.980190568
1.95603015
1.774708516
1.77195
1.794960386
4.394947358
3.724054838
2.748597128
2.92966785
3.153608575
3.273524494
2.672140544
1.987947195
1.886795487
1.913982442
8.36826405
4.703282738
3.221267126
3.868320038
5.984121505
8.059779696
6.44316778
3.24127383
2.497541457
2.44255838
2.912549675
40.91417318
10.12950404
4.024429796
4.191894155
7.148370754
16.7042016
15.98333352
6.122658906
3.67253585
3.39647043
3.803332628
3.986589822
143.7702581
46.13169472
8.972065778
4.731445141
5.84726291
12.36527533
18.9940812
10.19422897
4.852942849
4.125619327
4.3622975
4.791329112
5.862676096
319.0464322
186.3355216
40.05839341
8.937670284
5.149885859
6.960968016
10.48844532
8.494451459
5.320193408
4.6024503
4.942020102
5.736312735
8.029174913
7.674182067
314.5299963
288.2743983
158.7577042
38.65968883
15.29287372
8.396782913
6.777382829
5.433293991
4.590093697
4.698457797
5.42572612
7.854335855
9.926890786
10.15576114
6.67789111
342.8744564
316.1781424
297.0751793
218.1702041
176.2489912
113.6526858
58.28475061
21.35213896
6.187033537
4.669277412
5.822729246
10.04754038
11.06992658
9.858824334
6.772118526
337.9530362
388.4239685
552.1811174
691.0686685
692.6660293
585.3060431
437.7563322
273.1623678
97.32150951
16.54287003
6.185987327
11.19084657
11.32427777
9.105296541
4.217744299
165.969055
500.5653947
961.3599996
1241.458864
1141.801917
912.8601177
710.1636351
560.2276699
382.3857592
146.6861223
13.30458776
11.58832997
11.34139016
7.564930793
2.71669123
22.15986533
507.2809513
1314.844249
1626.582239
1521.554145
1217.512106
916.7413739
748.7106083
656.1320255
436.3302782
138.3634118
12.54831891
11.12375733
6.238909645
1.871051852
2.256393063
257.7493569
1444.516768
1883.670654
1958.427477
1580.021863
1162.543299
938.0810943
883.2055727
716.0225631
417.9041244
40.03940913
9.924370603
4.004296106
1.674521513
1.338305399
95.06179168
1244.732857
1941.852288
2575.776634
2580.579898
2052.578222
2014.009149
2171.662091
1000.060519
736.5914625
297.9286766
9.238553234
3.417200799
1.688951956
2.359728411
10.45886679
341.8721914
1761.611879
3133.591834
5130.969978
6158.914257
6205.357213
6458.431769
2825.503782
1478.841247
488.1622563
28.6230304
4.517012954
2.673722121
7.291356954
8.618896976
8.107082061
7.662404623
8.19821692
8.615295073
5.539982607
5.429184844
7.223428459
6.104603724
3.925149958
4.010955913
4.358848707
4.144279719
5.442242863
6.124761017
2.694774297
2.649516224
2.763845319
3.318710346
3.912706101
7.958193868
2.48197469
1.795729778
2.109031368
2.251786319
2.342926697
3.000595148
6.367778397
2.916161027
1.675395512
1.785918869
1.865562844
1.823290251
1.856090076
2.525233408
5.172363047
3.099146295
1.752375145
1.785772523
1.707990344
1.802840282
1.684213229
1.759432825
1.799507003
4.454098359
3.346359514
2.125745072
2.020711099
1.99751455
2.078046656
1.940945753
1.732537629
1.643298954
1.735735843
5.050619835
3.652691797
2.740328188
3.028883745
4.380270379
6.21074269
5.2936015
2.436537852
1.978513503
1.876446505
2.029525334
25.53706251
7.739349509
3.330528536
3.783970726
7.231852528
18.07181539
18.73128754
5.881232239
2.983548295
2.521552202
2.677667481
3.251458553
105.4139238
32.18755125
7.603640103
4.406592027
6.969010749
20.81179773
35.83838785
15.26753145
4.838051341
3.457088751
3.622520801
3.944782346
4.154978771
228.2258437
128.9312722
34.34908753
9.657831456
5.860745944
11.34801549
21.85040399
16.33222348
7.03977911
4.22670201
4.301697039
4.50461866
5.007737117
6.99265971
280.1449415
241.0395958
126.9546485
34.98494839
11.60858281
6.904008275
9.503245592
8.5994005
5.577936641
4.633397827
4.672036869
5.152346206
6.377132494
9.422440393
7.759508005
323.6733621
276.7746105
238.9108252
145.0739248
81.68454539
41.47745579
19.51333833
8.775785271
4.797533883
4.445637692
4.742732089
5.976423834
8.986802683
9.8404447
8.588649204
353.3031064
335.6577203
381.1677093
475.3245419
522.700741
435.4053951
278.992652
124.2931979
33.16824765
6.356120254
4.723272598
7.18763656
10.77060537
9.596457571
5.989882621
192.9382479
399.6344115
639.891246
987.1354044
1021.696957
898.4131842
736.6804991
563.5632114
325.7909313
102.713398
10.98603028
8.617206072
11.44708524
9.126263417
3.819888574
30.89651116
376.8630698
989.8424899
1447.514827
1477.373425
1286.132343
1035.621616
844.4173565
669.3022065
416.3941513
102.3292881
11.29991443
11.45381414
7.996733019
2.540599258
2.58628259
191.4928185
1222.148167
1733.436718
1919.285121
1724.35974
1360.011405
1129.877526
994.9067534
742.2398447
431.9281702
52.37006132
11.25353578
6.544503425
1.661990462
1.463705335
50.04524037
1104.510773
1855.844044
2362.397668
2518.606835
1991.544342
1640.081503
1653.231753
1088.430856
731.8485459
229.0755315
9.293341226
4.184910165
1.639129167
1.60387382
16.28733018
650.4101861
1753.033398
2628.435525
3789.837644
4558.288219
4020.909979
4275.064234
1921.807514
1071.37713
655.5443438
59.95679799
3.523964477
1.668064685
2.370759122
4.479214021
99.02418305
1022.438117
2413.347036
5067.805513
7151.268688
9052.158933
6797.566618
4123.432839
2175.048603
1061.393911
149.6824042
4.720807709
2.540263912
6.407871975
8.608275948
8.06333591
8.715533553
9.129717656
8.878959969
7.127945216
7.131897202
9.543983222
8.371776864
4.859508352
5.341173373
6.471321993
6.313004797
8.054015384
8.082491768
3.453771965
3.709463581
4.068994243
5.166722044
6.013431572
12.22497793
2.973331297
2.147921947
2.673047537
3.254340146
3.406275711
4.578376144
10.1240784
3.806125391
1.729825756
1.858245772
2.187513436
2.239906821
2.380917913
3.775414887
7.629989215
3.605602191
1.699578111
1.724762813
1.675416604
1.836822263
1.758826242
2.004894051
2.068829681
5.558848413
3.373741002
1.829119806
1.702314591
1.644132922
1.746889279
1.759640753
1.676315864
1.583138511
1.714138598
4.662527525
3.418227491
2.162099385
2.04695145
2.349339625
3.29998834
3.403601828
1.81938963
1.627870564
1.621130975
1.728571731
9.68083755
4.268310781
2.724555064
3.061856516
6.345791403
15.57839759
18.94316431
4.528047902
2.212971375
1.999519897
1.914399997
2.281812968
71.71551589
22.38484696
4.462530606
3.701377035
7.333404682
29.47330375
57.99391606
16.72582922
4.216560292
2.805477497
2.702141337
3.05243108
3.475185068
185.968833
97.9310512
28.62874682
8.793236695
6.103152451
19.05297222
43.57782571
30.83510408
8.51807853
3.749345475
3.636258934
3.84466574
4.048512078
4.937646156
237.3202844
209.676362
118.2387775
37.85290582
11.64295704
9.935017008
19.1724837
17.38720171
8.504011304
4.835104721
4.244336625
4.393703421
4.714745077
6.190916539
7.799114899
282.0381407
243.1195192
216.8776662
124.4037512
51.74047803
18.45879875
10.13050125
7.038931861
5.323967069
4.544904015
4.435078753
4.778936997
5.574914516
7.807324771
9.088300208
357.9481343
293.9817231
287.3740956
312.8852779
295.0109329
198.1167101
104.6367993
40.29540722
10.25405937
4.470557905
4.333474178
4.96206588
7.308396005
9.528221684
7.760822393
206.7240973
350.4186892
414.3087136
662.6578658
799.8043807
774.3304012
650.2695649
439.4848652
172.7055262
33.88037922
5.129434991
5.213932233
9.559895491
9.590729494
5.882211321
48.46043375
318.5081185
625.5815814
1134.343199
1298.525358
1204.536589
1025.415509
829.2667265
620.6638328
335.8052743
71.90240478
7.773757701
11.03074707
9.298420228
3.708460546
4.319642005
157.9889862
830.9879884
1487.782547
1725.352578
1674.921235
1439.731347
1206.541284
972.3462729
694.9521813
358.0935663
34.79403617
11.48225677
8.390364637
2.444095937
1.971518267
34.71817863
805.0616313
1655.631515
2071.374073
2324.91607
2049.552124
1700.406558
1533.620762
1091.462443
716.7306093
253.9465189
12.93490213
6.953934869
1.633269933
1.739156007
8.867564958
452.8767756
1632.09021
2305.977814
3112.190938
3581.981051
3004.4426
2943.130656
1748.378321
1071.316359
592.1122429
46.73365535
4.438706098
1.632611923
1.47452059
4.342458874
216.2509854
1297.160423
2180.360973
3767.208542
5101.986852
6348.618964
4760.567841
3194.427708
1602.50307
938.3660002
297.5898893
5.075901651
1.629935609
2.490697724
4.625172802
27.02497904
439.8995269
1585.352836
3696.141035
7208.809104
8112.588824
5620.942182
4242.546227
2602.127802
1584.701578
504.6798802
24.80268438
2.330877728
5.314113587
8.131472304
7.345434771
8.936676763
9.233214146
8.648495705
8.782508983
8.80173929
10.17506559
9.18628536
6.265170481
6.920976945
9.26285369
9.179073251
9.621292015
9.59227801
4.532058414
5.360334597
6.333292957
8.074685057
8.817416973
16.30561028
3.717931608
2.897969769
3.838219843
5.191868208
5.368945693
7.060572325
15.44900204
5.509724458
2.044996145