/*--------------------------------*- C++ -*----------------------------------*\
  =========                 |
  \\      /  F ield         | OpenFOAM: The Open Source CFD Toolbox
   \\    /   O peration     | Website:  https://openfoam.org
    \\  /    A nd           | Version:  12
     \\/     M anipulation  |
\*---------------------------------------------------------------------------*/
FoamFile
{
    format      ascii;
    class       volScalarField;
    location    "0.1";
    object      p;
}
// * * * * * * * * * * * * * * * * * * * * * * * * * * * * * * * * * * * * * //

dimensions      [0 2 -2 0 0 0 0];

internalField   nonuniform List<scalar> 
110452
(
-28.52098274
-23.60980918
-99.51462965
-126.8796546
-18.40684557
-60.1871904
-65.91437631
-167.1682198
-242.2396734
-202.6887069
-15.60576093
-49.73959448
-56.31844544
-93.21083362
-136.6351457
-102.1393626
-234.634897
-236.9564944
-286.8542501
-268.928019
-14.85404464
-40.5794589
-46.90096522
-77.77907861
-112.127968
-86.67200329
-129.164862
-176.2086652
-187.7391648
-137.2943492
-293.7892405
-301.2816926
-151.6322869
-393.6242993
-342.3419361
-15.52751738
-36.96973348
-44.00296477
-63.86421084
-90.42237107
-72.37327891
-108.3446154
-138.4437222
-148.9941935
-115.048718
-167.4063866
-229.804507
-204.2551724
-245.9418114
-168.9656893
-366.3952997
-428.9040377
-129.437293
-190.3912598
-506.0482276
-403.2472674
-17.24610203
-35.53234665
-42.95862381
-58.35573502
-81.465165
-67.77894009
-89.40016304
-112.6068347
-121.8775317
-95.68513668
-139.184146
-183.484598
-153.8116488
-198.4187256
-140.7970396
-206.4612532
-295.2923858
-237.401157
-249.5469876
-305.1982787
-194.3561041
-444.0574615
-557.1143311
-201.4983166
-106.7597621
-274.291153
-586.256049
-438.9104598
-21.36093874
-35.24504126
-42.57500016
-55.67134191
-75.82125766
-65.27375139
-81.39867091
-100.0580665
-109.8739968
-88.4964443
-114.2165146
-151.9397612
-130.4504049
-162.5308325
-115.3792149
-170.8262772
-241.2759754
-183.3031673
-189.2907301
-245.8401759
-161.2238061
-244.8195237
-367.2875073
-289.3820328
-273.2462448
-301.8612848
-352.3746211
-209.5811158
-510.7091211
-664.3830403
-296.180331
-138.0040648
-173.9473422
-343.7775484
-637.025655
-450.5889847
-30.51317448
-35.32432838
-42.3195132
-54.21188866
-70.17361467
-62.59302457
-75.83366216
-92.76510721
-102.0503215
-83.16894415
-102.1804879
-135.6396026
-116.4262859
-146.2043728
-105.0951456
-137.6372203
-198.2055296
-160.7017513
-163.3748768
-199.2381698
-130.1350938
-200.9890907
-300.4392303
-230.0661919
-210.0736948
-230.5345902
-281.4118114
-173.0999005
-281.3455152
-440.6713353
-358.4304529
-314.334313
-323.2448022
-346.2954275
-378.9388944
-213.9587725
-570.5445607
-764.9005967
-397.647204
-205.7950836
-189.7468294
-263.5753478
-400.6555655
-655.3514876
-438.6616973
-25.3848681
-33.99292898
-41.34670055
-51.57909124
-57.15853878
-56.40638368
-70.31436686
-85.86775327
-93.36872859
-76.5515506
-91.80374666
-124.0636189
-108.3415344
-133.1638391
-95.94241741
-119.7721324
-174.9789619
-144.6703411
-147.1224997
-177.8326047
-116.7579519
-157.9257747
-241.3756076
-202.3020783
-192.5988704
-196.6722295
-224.4610736
-138.0252868
-228.2739156
-356.4690454
-288.7058267
-251.7754095
-242.5351718
-265.2025311
-300.7054372
-176.4753214
-315.3940417
-509.7205444
-432.3564578
-379.4856782
-361.0947906
-369.7889174
-372.2227032
-385.4526718
-208.8615478
-625.2226249
-863.8399639
-498.7536195
-330.9708345
-236.8176863
-265.5319201
-345.2165446
-426.8720153
-636.9974906
-401.9107805
0.2193484092
-22.55220168
-31.34466605
-46.45256915
-36.6116956
-48.32613435
-61.68737803
-69.7177128
-72.64747474
-65.68614112
-80.25040509
-109.3287064
-98.68402608
-115.960337
-83.79463215
-102.9127244
-153.1184208
-134.1285558
-135.5367541
-157.6881759
-103.1157539
-133.1320391
-206.5426092
-182.4427252
-173.7336909
-176.9087029
-197.2273799
-121.7899145
-175.1966649
-278.882188
-249.6047921
-232.7251892
-221.4190301
-223.0488636
-235.3579376
-139.9043619
-253.2330212
-408.611496
-349.5317264
-304.4619309
-281.4813147
-272.2469909
-284.5074416
-304.794673
-172.626589
-347.989579
-576.2848977
-505.44928
-468.821829
-413.7055381
-408.4996598
-399.1523649
-377.8816232
-377.3743449
-192.8711349
-675.1360116
-959.2197598
-595.8626844
-486.1708778
-332.8839119
-221.0062352
-345.3776191
-384.9789981
-402.8408423
-584.2612948
-340.2852986
21.40463546
2.359628766
-1.601035243
-30.49295139
-24.05999351
-32.62880355
-56.70779627
-48.6678837
-46.79374764
-59.8596189
-68.39178162
-80.9806436
-80.8874234
-83.34951855
-71.82346582
-85.54461629
-124.7187668
-117.0737778
-117.9763851
-128.1613412
-85.88128199
-109.8182286
-171.065895
-162.8766321
-158.2837745
-158.6693912
-168.473984
-104.1459552
-143.0327298
-229.516387
-218.4361023
-208.4629895
-197.7309399
-197.5891424
-201.9117768
-122.6059147
-190.2655379
-311.5750907
-293.6723732
-279.4150685
-258.1482124
-243.0138473
-235.8787037
-235.5995666
-137.9809021
-276.6628814
-458.1699554
-406.8766265
-368.6190824
-330.2285517
-299.040605
-288.9382304
-287.4004176
-299.1680675
-159.972135
-380.3570982
-642.9803579
-576.9437927
-561.7144419
-511.0244089
-444.0939931
-441.4416862
-408.3108881
-370.4695681
-349.0976539
-167.1707167
-723.2036628
-1054.633883
-681.9245962
-610.1524353
-468.3680215
-198.6607359
-214.9867297
-375.4746374
-346.7133591
-343.1227046
-502.8152894
-266.7518497
39.06001447
23.13563533
20.35971274
0.5578913115
0.2057668603
-2.174786066
-31.43683835
-27.99850031
-26.48221694
-33.08044688
-62.92652191
-54.16596485
-57.04741614
-54.51865153
-64.43745081
-72.92445616
-86.53916868
-90.73570996
-91.19278966
-84.52195724
-73.78098464
-88.15013905
-132.4055035
-131.9350253
-132.5587654
-130.0993309
-129.7375239
-84.49267612
-113.9642418
-182.6174618
-183.7878062
-183.6802006
-175.7212543
-169.6710477
-167.0751451
-103.9530679
-150.7773697
-247.0956572
-245.1847306
-240.487136
-225.2297535
-212.0664179
-203.5936203
-200.3307408
-122.2800557
-203.8462524
-342.1700103
-333.2250928
-326.676275
-300.2856256
-270.1493063
-252.7796513
-236.6445149
-234.153491
-129.3669545
-298.8791621
-508.3692379
-463.1099129
-432.6423941
-388.4456076
-328.8398867
-305.156005
-289.9319851
-281.6258692
-278.0531392
-139.2870557
-413.0052198
-715.289375
-650.9118844
-655.8355888
-648.1767688
-511.3504221
-475.0919395
-454.1039976
-397.9083694
-342.2532098
-300.7204401
-135.3830357
-777.9936597
-1159.85904
-760.9304522
-706.9994185
-654.1747909
-172.4362714
112.4837374
-183.4842247
-333.7958158
-259.9771175
-271.4003706
-389.8513497
-200.679661
56.50316807
40.72877426
38.22747796
22.98417209
22.205077
19.3050566
1.330391886
-0.8334332331
-0.9272225805
-2.486717646
-32.81086337
-28.24517503
-28.9047968
-28.36749809
-30.26190601
-66.08093994
-58.28611819
-59.97968355
-60.58903388
-57.79698173
-65.85763863
-75.73663176
-87.14106618
-96.92991528
-98.49497511
-95.39778093
-83.34331291
-73.64796114
-89.13825979
-136.9579324
-139.9505567
-144.4755764
-140.3892916
-131.3543845
-123.463547
-85.2978249
-116.5589324
-190.4816849
-196.2792831
-201.5682404
-192.6297986
-183.2121656
-168.1244329
-164.5191189
-105.0947171
-157.2665339
-262.555956
-266.6160166
-266.2968102
-251.05949
-229.0886028
-214.3640606
-201.2235584
-201.2834692
-116.5543358
-216.0093004
-374.0127959
-372.9034433
-370.0535112
-344.4841983
-299.3363739
-271.8654685
-252.1777945
-233.3117857
-221.4692683
-114.325989
-318.8386655
-562.5715118
-523.0485868
-497.0792608
-450.5899766
-365.2097622
-314.3156527
-301.5805218
-284.6023849
-259.7010427
-241.5057133
-113.4363562
-451.0505905
-801.7572044
-739.1402585
-751.729601
-793.493098
-643.8394053
-508.3250619
-487.7126301
-439.9841938
-364.642895
-295.8242914
-241.2925112
-100.4362804
-837.0145968
-1292.586096
-854.0397001
-790.4168822
-774.9115063
-281.6829924
555.6490013
327.6581033
-186.249287
-249.1326577
-167.9865509
-186.4976512
-283.1431517
-125.1502963
73.98186842
58.08838995
56.32630235
40.91778656
40.32064317
37.39690652
23.61850406
21.82206862
20.74397915
18.1632232
1.189353345
-0.1067597141
-1.692266347
-1.632201413
-2.449346955
-31.98216731
-29.73248607
-28.6871037
-29.47892554
-28.51140526
-27.55045696
-68.06169557
-59.65500771
-62.66743961
-61.17602881
-61.84757783
-58.09169437
-62.54704691
-76.94135868
-87.04124319
-99.93950039
-102.1439635
-100.3223973
-95.18145907
-82.33243431
-82.68505273
-89.38407254
-138.4917969
-144.1035954
-151.0981971
-146.6514615
-141.3897856
-129.2418708
-120.0671196
-85.76948455
-118.5979242
-196.891535
-205.1420289
-212.6303655
-205.1219863
-191.6900311
-181.0626914
-164.959283
-167.0530393
-103.4281543
-162.7244681
-278.3749958
-287.8066348
-289.1160022
-274.8918443
-246.1759614
-225.5272439
-210.777234
-201.226245
-194.9886911
-104.6370725
-225.2475362
-408.4163319
-416.9997509
-414.8411283
-388.0658981
-335.60857
-291.1018167
-268.3322956
-248.983399
-217.7853921
-195.4074103
-94.47487688
-339.8082402
-621.1426273
-594.2914336
-569.0148193
-518.9168318
-408.7460292
-319.1531273
-302.9277062
-299.5137797
-264.0893561
-223.6951194
-194.120358
-85.27376594
-489.3248117
-909.6436315
-865.5570938
-860.0418565
-927.1487999
-835.6954619
-579.3795768
-505.2057022
-468.2563282
-399.7594505
-314.1620398
-242.64564
-183.5488737
-64.51919763
-884.0431336
-1443.063463
-1009.949021
-875.1394778
-862.0297352
-519.5280534
980.5560524
1103.535864
143.6619582
-190.4756057
-178.3280829
-100.9245583
-147.514874
-238.6249003
-28.02905465
90.8684624
75.29171724
74.02180237
58.69973243
58.17159532
56.0303805
41.85495561
40.61909242
39.46611354
36.95716482
23.72866592
22.47004897
20.43273184
19.86171665
17.1518893
1.781754565
-0.2866224207
-1.394240161
-2.567244181
-1.82945749
-2.354190175
-30.47994826
-29.75394955
-29.91476892
-29.12815237
-29.81489973
-27.13938939
-25.36431866
-67.61455103
-59.93755969
-63.67873431
-62.53687269
-61.86652415
-60.65221651
-56.67204552
-60.73414064
-76.96463526
-86.46241305
-101.4478287
-103.6064889
-102.8359919
-98.7300104
-93.13153433
-84.47274482
-74.17557786
-89.64122806
-139.2450534
-147.7087976
-154.6418507
-151.3862502
-144.6966087
-137.3230592
-127.9643141
-123.3191505
-86.20772705
-120.477576
-203.2235201
-214.3840709
-222.5222487
-215.1564233
-200.5783616
-185.8529097
-175.9964725
-166.2890686
-166.9088639
-95.86045582
-165.8638248
-295.7754744
-311.440919
-313.5191737
-298.9932477
-267.2136324
-237.982565
-220.9677802
-210.6314743
-192.8646219
-174.9526868
-87.84839027
-234.1536706
-449.9605027
-467.4916731
-467.8995748
-437.4375419
-379.1582583
-320.0776101
-285.5100305
-267.1628615
-235.4004867
-190.2102648
-158.8811546
-71.37236906
-349.9022124
-687.8400467
-693.5088543
-660.4141353
-600.3491749
-468.1849484
-327.9056766
-297.4170634
-307.3949298
-287.5280764
-232.307578
-182.3689514
-145.2651665
-55.17107539
-499.9154719
-1030.384235
-1048.860864
-1013.399932
-1060.607088
-1057.596938
-684.5641715
-570.8605396
-490.2661072
-427.9057069
-345.472147
-262.0314069
-197.4574593
-133.0555953
-23.05431723
-871.9486592
-1589.469065
-1243.77163
-1037.176676
-962.4929143
-847.9399103
1097.935207
1876.657066
558.6706844
-154.7907069
-210.627502
-124.9192438
-122.5109923
-231.3795118
-97.80995353
107.0651944
91.81411128
90.80206905
76.05937856
75.47379145
73.87351524
60.03183386
58.87545838
57.79456291
55.92697632
42.71926897
41.82072525
39.92662117
39.19919233
36.66761114
24.40474833
22.77613782
21.17252183
19.65432741
19.20545757
16.82074256
2.330801537
0.3007779563
-1.654397198
-2.44059573
-3.018858567
-1.707503396
-2.482779074
-28.87723297
-29.21473152
-29.96770714
-30.13672028
-29.69096384
-28.72403873
-25.65038481
-24.11844502
-67.49438381
-59.63910372
-64.01956163
-63.19941473
-63.08246197
-60.6472195
-58.41989053
-56.22567397
-61.7829843
-77.10634691
-86.78148244
-102.3643143
-104.9731674
-104.2768047
-101.1031644
-95.50674888
-92.21459191
-82.35929207
-73.80606971
-90.32406106
-140.1957162
-151.2958259
-159.0418484
-155.7314264
-149.085661
-140.5808057
-134.3557713
-127.8758727
-127.7204156
-83.51862475
-121.2976485
-209.3463488
-224.6311474
-234.5807042
-227.032042
-211.0045797
-194.3703316
-181.5900928
-177.9028621
-165.4092929
-155.2980824
-82.92882668
-167.0810164
-315.5329642
-338.9624489
-344.1834668
-328.8390174
-292.5846222
-255.89508
-232.8828959
-220.9303589
-204.910317
-171.5209722
-143.767312
-67.33964865
-230.5849941
-480.1829146
-534.3972734
-539.2533086
-502.4052818
-434.0291372
-358.6300663
-312.6084823
-284.784186
-259.5812828
-211.3874272
-156.934756
-118.8229418
-46.12544239
-334.9267931
-736.5870189
-825.8623866
-798.3329316
-713.4955805
-553.6793812
-354.9800644
-295.2093963
-310.5269648
-312.5178254
-265.8452226
-198.9302114
-147.3458141
-108.8422088
-18.00053984
-469.4251644
-1112.19519
-1304.481315
-1272.338957
-1230.690486
-1278.071392
-819.4478003
-647.2773978
-538.8957226
-484.0073524
-389.4556672
-295.9396625
-226.3964651
-170.0279539
-58.36632691
-803.0989673
-1646.623264
-1560.519155
-1331.501372
-1115.734223
-1110.573778
962.8348009
2135.995002
909.9467445
-146.7177531
-298.3835387
-182.9294515
-186.611257
-290.2364101
-163.628915
122.4986419
107.6262608
106.8719006
92.56886048
91.89480523
90.79399178
77.3751065
76.2671581
75.29120726
73.78914967
61.34832123
60.30491223
58.55850084
57.76322639
55.77785967
44.14400023
42.8406557
41.26677206
39.77586733
38.88588974
36.82605309
25.32893552
23.76994855
21.71347665
20.57204508
19.19940219
19.10050718
16.75337961
3.214862218
1.079952886
-1.120668424
-2.503663949
-2.782707594
-2.834945785
-1.503720701
-2.328656735
-27.89264721
-28.25245219
-29.69028758
-30.01342831
-30.34116402
-29.04152738
-27.467608
-24.51967181
-24.15730327
-67.45085701
-59.23746232
-63.60576382
-63.67970649
-63.54664698
-61.9948765
-58.86850656
-57.0562239
-55.51613318
-63.25314404
-77.94678643
-86.21545862
-102.7800251
-106.3700919
-105.9930946
-102.9636465
-98.19680913
-93.85323324
-91.43619047
-81.105397
-71.65924762
-91.02850448
-141.7069861
-154.3839019
-164.3816641
-161.7786088
-154.1635101
-145.3774418
-137.8439122
-134.5857138
-127.3687017
-124.7924466
-75.96271815
-118.7854335
-214.4870334
-236.3838013
-250.7435005
-243.8255637
-225.8706919
-205.3139822
-190.4354118
-181.6998085
-177.2868797
-153.7313957
-131.6918499
-65.3321102
-159.3605853
-319.6018095
-373.8946379
-385.9520144
-371.3245471
-328.320892
-280.8910854
-249.301008
-231.6599145
-219.4772393
-188.6812553
-142.0552779
-107.9222837
-43.73463372
-228.2915048
-483.0458891
-617.9504691
-643.0546986
-599.6828296
-512.9124924
-410.672852
-347.0887959
-309.8497981
-284.3529827
-242.6649314
-181.3533781
-124.5757918
-87.57297933
-15.37574662
-294.0050646
-725.6277962
-993.3473093
-1016.897511
-891.0428886
-684.0655758
-416.5208454
-312.0744502
-318.2108076
-341.9783043
-305.9901746
-233.7415702
-172.3989887
-132.5410507
-47.94652611
-410.3878376
-1095.675866
-1611.882724
-1690.51927
-1515.608335
-1513.75743
-984.0033412
-655.2316184
-617.4572102
-598.3292204
-474.9500122
-352.4679602
-271.8298233
-218.9126624
-89.69382745
-719.18296
-1565.736532
-1844.193439
-1812.056786
-1394.943405
-1265.86174
769.9859187
2191.508009
975.8562694
-270.0619246
-426.2977414
-303.0738359
-273.5374704
-408.5392323
-227.5157468
136.9292046
122.6818458
122.1882404
108.3152031
107.5622483
107.0281252
93.66672636
92.68831523
91.8821236
90.75126814
78.785513
77.62618732
76.13790967
75.28650572
73.78517686
63.19541216
61.66172033
60.04493994
58.61314233
57.60492584
55.92135019
45.95747689
44.41856492
42.43748992
41.21800017
39.55101447
39.01942582
36.91279981
26.75854438
25.10773162
22.94440823
21.36223171
20.32505138
19.28837357
19.1627283
17.16170942
4.066075457
2.413650795
-0.1406523407
-1.601812321
-2.49247156
-2.492411688
-2.450065958
-0.9424120211
-1.815829561
-28.15925899
-27.03932978
-28.64272459
-29.44940102
-29.8632759
-29.48883036
-28.04637698
-26.40118754
-23.96412578
-25.01433218
-69.05286172
-58.0419714
-62.64534311
-63.40551942
-63.85930701
-62.37291538
-60.28733024
-57.53362444
-56.38816998
-55.15883224
-61.51296422
-76.62885081
-85.31278383
-102.1719821
-107.27471
-107.9942032
-104.9935755
-100.3979989
-96.34758984
-92.6908819
-91.51279533
-79.97309248
-65.25774833
-88.90545526
-141.3718417
-156.534698
-169.955353
-169.3297663
-161.5803866
-150.7752706
-142.5566475
-136.6753528
-136.2517184
-124.5237802
-113.2917037
-62.57728815
-108.359925
-207.1067486
-246.0575407
-270.980248
-267.1599714
-247.2944346
-221.4669556
-200.7885561
-188.3458641
-183.7367705
-168.2077391
-131.6428074
-101.2185392
-43.30363737
-203.4106356
-300.0367175
-397.1124106
-446.7154453
-433.392878
-383.201191
-319.0657136
-272.6314255
-246.0001431
-232.7407818
-211.2185724
-163.8634444
-111.7505852
-79.28471304
-14.8419089
-199.2217366
-453.0903497
-691.5099266
-799.3479174
-753.8038057
-635.4821561
-484.6941132
-390.6653684
-339.8815777
-312.0808914
-276.9108283
-214.7250906
-150.3838338
-107.295598
-38.88415043
-242.3812742
-634.0870626
-1110.25456
-1350.193486
-1197.465802
-884.6663333
-520.7547571
-345.6614684
-343.5949147
-374.3699091
-352.1924563
-277.7893511
-212.4596852
-172.6879903
-74.2494849
-357.0800427
-978.1970473
-1725.335935
-2217.514635
-2019.853811
-1835.943371
-1198.954228
-601.8820295
-716.1744918
-753.4890648
-592.0545538
-430.271866
-332.3621138
-277.5212611
-123.0543671
-652.2375066
-1361.184085
-1869.842362
-2316.686994
-1872.977761
-1347.407295
663.3079049
2243.543556
979.5202155
-497.9738395
-589.6308378
-444.0928124
-365.0809868
-524.2106511
-281.2883781
150.0427358
136.8585966
136.5127219
123.2670606
122.4938911
122.4176274
109.0864814
108.3195258
107.7232076
106.9448924
94.94479267
93.84075616
92.73585007
91.87707529
90.90740892
80.6579748
79.04260606
77.55833093
76.21552166
75.28053661
73.99719157
65.50569644
63.51838129
61.50636875
60.1492723
58.53850415
57.76962309
56.031464
48.36590066
46.38619286
44.20683081
42.52183892
41.06170844
39.75659109
39.10913188
37.37938052
28.62756276
27.04074636
24.68189841
22.92351934
21.3673922
20.53362869
19.51757675
19.71995327
17.47010062
4.565454889
4.042559041
1.666927783
-0.08893227156
-1.20917519
-1.93869189
-1.930195373
-1.643670566
-0.362512847
-0.70289956
-32.30468359
-25.97505178
-26.99762616
-27.89969314
-28.76941252
-28.67256971
-28.33148852
-26.88751975
-25.65025349
-24.06071673
-26.26774702
-67.08383582
-56.33128954
-60.95349489
-62.1635558
-63.25506463
-62.3739964
-60.5673113
-58.74826674
-56.38054896
-56.89510287
-53.75561241
-57.71216698
-76.80145311
-85.6049094
-100.1070541
-107.0991986
-109.2776859
-107.0653849
-102.3658486
-98.26563208
-94.391176
-93.79572634
-90.02737378
-78.63615871
-55.37966516
-84.35900755
-132.0463371
-153.1209773
-174.327291
-177.7341569
-170.5806683
-158.2373591
-147.2991571
-139.8190597
-137.8848507
-134.2096795
-113.432875
-92.30087446
-43.38992063
-138.4172781
-181.481158
-240.4559126
-289.7843136
-300.755831
-278.784298
-244.755653
-215.7713183
-196.2390449
-189.0746411
-181.0874355
-150.1437678
-105.008513
-74.46409363
-15.80474193
-190.0152411
-278.4115786
-401.8395824
-515.9659421
-528.488729
-471.9390296
-380.3201633
-308.3781491
-265.3849125
-246.5470133
-230.4400196
-192.0908547
-135.6741157
-95.56766016
-35.50618666
-147.6394113
-371.9880244
-704.1145365
-1012.463929
-1008.218215
-835.8965404
-607.7157754
-452.5303127
-377.839794
-340.0326648
-309.1726686
-252.7451927
-185.4920552
-141.9817949
-60.43801652
-213.9290636
-500.8664074
-1000.967609
-1669.135248
-1676.541989
-1225.627136
-694.5171664
-415.1085444
-394.5387532
-413.4469694
-397.6718868
-329.3662618
-262.2925511
-223.8292343
-102.4430607
-326.441728
-810.1970763
-1538.357762
-2472.601918
-2682.222187
-2355.63398
-1401.63105
-487.0026447
-834.8760731
-914.8130893
-708.0615067
-509.1868463
-395.5176618
-340.9390736
-157.5705455
-604.5033806
-1150.158483
-1604.275392
-2468.669905
-2237.571053
-1458.160965
732.4243014
2578.466733
1173.184151
-736.2390777
-707.9104484
-551.5763291
-454.1807949
-618.0995987
-347.2855553
162.1031935
149.9227148
149.6696926
137.3300405
136.6093997
136.7393282
123.6261984
123.1901861
122.8207575
122.2415294
110.0671518
109.1734165
108.5258131
107.6630365
107.119425
96.55617248
95.14064623
93.95680074
92.80787653
92.01802418
91.13841114
83.10192899
80.86235759
79.07324901
77.67229799
76.29475248
75.45157625
74.13669248
68.36637812
65.77570518
63.49474089
61.68435664
60.12651234
58.77140179
57.90282328
56.48982488
51.2814327
48.9883824
46.45549094
44.48180619
42.5511917
41.30383
39.95808289
39.6101819
37.61524144
30.78412291
29.53315991
27.20905988
25.13912731
23.27251171
21.83300348
20.90314894
20.23994768
20.11435177
18.27404364
3.999261048
5.780348196
4.137985619
2.420787024
0.8869992094
-0.1756323392
-1.134231298
-0.8877892463
-0.9905342962
0.6092423231
0.04878801103
-41.38797328
-25.39174342
-24.67945885
-25.30297302
-26.3843455
-26.97428671
-27.17213839
-26.90925241
-25.90527257
-25.31912062
-24.2911854
-28.1079473
-71.7404853
-52.92014237
-57.94759196
-59.31020423
-61.18334388
-61.13524398
-60.10499279
-58.70002243
-57.17108419
-56.14834818
-56.7881087
-50.60223
-45.81043371
-83.3897418
-82.1194723
-93.26859079
-103.9034915
-108.9739142
-107.9720817
-103.8118931
-99.49780158
-95.53308425
-94.74680084
-93.7610815
-86.09070248
-69.36034945
-42.75405004
-106.2698565
-110.7467271
-140.7381857
-171.0648746
-186.2838585
-181.7776258
-167.3995525
-153.5473694
-143.0698418
-139.3207272
-137.14453
-125.4816634
-95.21760585
-69.33917084
-17.81754594
-135.380969
-164.9555849
-223.575861
-298.5136276
-340.8507459
-329.0605616
-283.0833752
-238.4856394
-208.1475023
-194.0354887
-188.3843939
-169.8683872
-126.5729889
-89.13693456
-34.41569659
-116.7962621
-224.7755242
-376.2077638
-585.564728
-679.6523001
-611.293133
-485.0126405
-369.1789953
-295.497598
-261.4927975
-244.9778112
-216.4553598
-167.2873248
-126.8689013
-55.14809676
-128.4899422
-258.2117738
-561.1114018
-1115.3409
-1360.747417
-1158.826987
-815.4549624
-568.6804662
-440.3581786
-372.7736912
-335.5611847
-287.9127599
-224.3237748
-182.2255197
-83.93104054
-208.0813808
-395.6632238
-707.1201928
-1470.408271
-2060.868018
-1741.590239
-977.9481575
-565.4950961
-497.8238702
-477.3751913
-439.856808
-375.4193401
-311.0165619
-274.8226296
-129.8732714
-309.4876337
-685.4786917
-1209.544852
-2251.062415
-3074.154113
-2974.839987
-1544.555945
-89.76563719
-868.3289738
-1099.421206
-818.3614796
-589.6287533
-456.1626466
-403.5826601
-191.7401105
-564.7917259
-999.6263206
-1198.244386
-2237.714527
-2257.414328
-1381.905786
1307.431343
3067.161302
1824.86866
-809.4864899
-872.6647751
-648.0918054
-537.6385901
-703.763507
-416.9250336
173.918844
161.8791661
162.1153045
150.3834794
149.7275481
150.0732003
137.2584988
137.2512619
137.0282622
136.5057718
124.1716599
123.7021728
123.55661
122.6784699
122.4181303
111.2210691
110.2372524
109.4590735
108.5654727
107.9007097
107.2790623
98.84798672
96.70771212
95.37463414
94.04268018
93.0462589
92.17858373
91.24554194
86.05501905
83.07709261
81.02084666
79.22888773
77.80920884
76.51169732
75.60848591
74.53342559
71.69024829
68.59971401
65.92745671
63.7551728
61.79797819
60.36781018
58.98598735
58.32082025
56.63817356
54.74218919
52.2067945
49.42785753
47.0448832
44.73838089
43.00013683
41.60081245
40.57039058
39.89925907
38.25262764
32.76901561
32.50169147
30.50650463
28.3279601
25.96463782
24.20588215
22.44211236
21.8110327
20.73650134
20.97744205
19.10875705
2.121966233
7.08613819
7.371440855
5.934926059
4.266457762
2.666421519
1.093844848
0.1401206964
-0.1327697751
-0.02326191915
1.449548215
0.7499883171
-50.56243353
-25.16878641
-21.62538988
-21.17145901
-22.4684882
-23.72358857
-24.86496257
-25.43756111
-25.72038941
-25.09013181
-25.17742534
-23.53222694
-27.74028906
-91.67946444
-52.75162754
-52.62099473
-53.37329278
-56.56504423
-57.81130071
-57.97353569
-57.62873307
-56.65804992
-56.47760811
-55.69676517
-55.07212559
-43.76811091
-40.27139896
-91.2175587
-75.18565185
-82.77676236
-94.34423146
-104.481082
-106.8327452
-103.5688239
-99.75140086
-95.99852575
-94.67096809
-94.33541424
-91.28985972
-76.66632131
-55.39963674
-21.92867182
-108.4140529
-103.7368674
-122.2503565
-156.9482032
-188.4177415
-195.3886077
-180.5027675
-161.5134574
-147.5100697
-140.5798155
-138.088006
-133.1539532
-110.0031579
-82.37040014
-34.58891275
-89.879518
-136.1985935
-195.5471545
-295.5789982
-388.111986
-397.8022863
-344.7821631
-277.1589071
-226.7338346
-201.6144156
-191.7949078
-182.1145035
-149.7386319
-116.5839551
-52.72711262
-93.4918833
-144.9872906
-270.5103241
-568.1698475
-846.6536462
-820.1547904
-651.3599995
-474.6117049
-348.2237425
-283.5100338
-256.8945272
-233.2701182
-195.774615
-160.9308725
-76.53299775
-130.5336781
-200.6065487
-334.1839169
-862.7567931
-1518.222378
-1567.94138
-1139.429101
-763.7826828
-554.706962
-428.2029687
-361.0192951
-315.6299618
-257.6622166
-218.3903139
-105.8325316
-212.5059507
-372.410111
-456.616302
-960.6284202
-1788.741982
-2059.932937
-1342.403285
-743.6614436
-638.6444552
-591.2254184
-495.9929406
-414.8741052
-352.4451961
-320.2862485
-157.0700645
-292.7269817
-617.7699039
-918.5531408
-1810.192376
-2788.198479
-2953.357932
-1137.505181
808.2606518
-457.0145011
-1276.793174
-995.1834122
-679.8454932
-514.9486182
-459.8099547
-224.0623459
-524.9929732
-891.1671267
-886.1538832
-1686.582893
-2232.333017
-1099.88905
1120.503544
5631.119384
2408.796882
-519.414496
-1144.540326
-806.4691729
-616.2459602
-786.655998
-474.6994592
185.3431983
173.6940013
174.2665449
162.4083067
161.9973027
162.7524937
150.0396078
150.438099
150.2341892
149.9959042
137.3151922
137.4637189
137.7534094
136.8250025
136.9291438
124.6738006
124.4572982
124.158112
123.5733528
122.9776015
122.5399949
113.0759329
111.3907118
110.6942704
109.4983775
108.9469082
108.0079689
107.3230186
101.6303762
98.65389598
97.10642759
95.48482584
94.34064832
93.23301178
92.34519836
91.51745298
89.34281261
85.77639217
83.38159017
81.19583235
79.47820308
78.01598747
76.7523786
75.93633169
74.6083157
75.62858742
71.99096931
68.9666692
66.35179738
64.024394
62.16715687
60.64621837
59.45608561
58.54201608
57.14189846
58.70037533
56.05568808
53.16334995
50.48486163
47.62214668
45.50725173
43.49640525
42.34408414
40.96601547
40.61627106
38.60631415
34.85103965
35.47214906
34.66949889
32.53472797
29.86058695
27.65959669
25.24735182
23.52440554
22.41613636
21.66662595
21.78814137
20.65387177
-1.468280725
7.636547687
11.01352413
10.7720961
9.045105221
6.995898395
4.573755406
2.667394002
1.033846771
0.9317216713
0.879416603
2.489957447
1.34494706
-54.50961304
-26.6111023
-18.62722128
-15.15024326
-16.27258328
-18.41707122
-20.68001371
-22.57642689
-23.98176468
-24.69163742
-24.26160266
-24.12073836
-21.79170524
-27.60151958
-82.74293542
-55.34368014
-46.6087538
-44.63956684
-47.50659967
-50.90523499
-52.94025588
-54.52585551
-55.02613896
-55.44679579
-55.66290105
-54.24889554
-52.22411335
-34.75570968
-29.88726077
-96.17506052
-70.82680767
-69.24824943
-77.46994479
-91.32011565
-100.096334
-100.4570189
-97.79087901
-95.2108535
-93.97487854
-93.42536159
-92.67758019
-84.14561921
-65.86082041
-34.8670267
-78.37884889
-90.05453602
-104.7142632
-136.4092032
-182.2346405
-206.2686239
-197.9975194
-173.736417
-153.2694187
-142.6469458
-138.1744965
-135.8683917
-120.7230288
-102.3954208
-51.5697251
-74.39062567
-91.81361719
-138.4301626
-250.248477
-414.6894951
-483.227301
-432.5874999
-339.435931
-259.1254331
-215.0000185
-195.8685279
-186.6690046
-164.7786284
-141.3147883
-71.7654146
-95.46537678
-119.8943305
-136.6155823
-373.9241728
-818.2893148
-1036.863852
-873.0521738
-631.7274762
-433.3772494
-322.933102
-271.6065878
-244.7473002
-213.6236643
-186.8849844
-94.98499521
-139.5872115
-213.8357394
-191.2035729
-467.3531659
-1104.535564
-1655.340081
-1488.816163
-1016.292716
-704.3373603
-514.5644141
-401.7106459
-337.4625824
-283.6551784
-247.0005392
-125.5363313
-213.0828433
-383.9062458
-388.5488733
-616.5539463
-1122.932342
-1776.875976
-1338.243682
-813.5396432
-634.0191146
-711.5325942
-579.4110702
-457.1069512
-388.4015475
-358.976744
-181.709848
-274.2706236
-562.0892605
-737.6442878
-1363.20945
-2257.149684
-2196.856881
65.37555762
3495.782717
376.6487029
-1274.436389
-1230.377261
-813.930122
-581.8457676
-511.3601514
-253.3182957
-480.8250031
-804.6729439
-702.3493638
-1129.621427
-1863.157001
-791.6127784
-424.3681194
7135.400857
2493.248243
-64.49407026
-1359.538218
-1089.348582
-722.5772173
-869.1764377
-524.2027703
196.3415327
185.4463432
185.8118993
173.9927741
174.0866063
174.8096773
161.9822785
162.6663858
162.6842259
162.8448407
149.8314535
150.4667809
151.003894
150.156914
150.7106613
136.9994959
137.9688893
138.0512068
137.7796916
137.2843154
137.1278096
125.8929405
125.1076448
125.1576445
124.1967675
124.0564134
123.0435521
122.6666421
115.5542519
112.8821109
112.0911509
110.7588812
109.9653295
109.0691064
108.149555
107.5272824
104.7052799
101.0318691
99.22467169
97.20138082
95.90266913
94.50118079
93.48366007
92.56839509
91.54804681
93.09948861
88.93901999
86.2261259
83.60774783
81.57756841
79.74273109
78.32454542
77.09875701
76.09081294
74.92460029
80.16582947
75.96919647
72.6335774
69.63525483
66.82110422
64.56549767
62.6351464
61.18856061
59.77491399
59.07245116
57.41773503
63.31602764
60.43147134
57.74908106
54.87550219
51.49917645
49.03053487
46.30187224
44.34991766
42.85348209
41.74512792
41.10914657
39.43312115
37.19730737
38.45116804
39.4456569
37.98005408
35.09371017
32.47861196
29.27903828
26.61854594
24.23759372
23.46695717
22.48607648
23.08789859
21.93841083
-2.646821829
8.199440315
13.99898127
16.66638865
15.73737009
13.04684855
9.732983755
6.706082568
3.712714051
2.218322114
1.9590005
2.151589689
3.387975668
2.010296462
-49.88215781
-25.60479885
-15.31887542
-8.383875565
-7.393581207
-10.03358023
-13.81821051
-17.68862455
-20.79777432
-22.79161025
-23.8054044
-22.77423958
-23.30471408
-19.50469566
-23.09439097
-89.85549379
-51.0802302
-38.77957557
-32.7354955
-33.51362248
-38.501945
-43.46857366
-47.95949993
-51.25281512
-53.44808671
-54.41046033
-54.12852845
-53.49758731
-45.85531465
-32.30231371
-81.0833605