/*--------------------------------*- C++ -*----------------------------------*\
  =========                 |
  \\      /  F ield         | OpenFOAM: The Open Source CFD Toolbox
   \\    /   O peration     | Website:  https://openfoam.org
    \\  /    A nd           | Version:  12
     \\/     M anipulation  |
\*---------------------------------------------------------------------------*/
FoamFile
{
    format      ascii;
    class       volScalarField;
    location    "0";
    object      p;
}
// * * * * * * * * * * * * * * * * * * * * * * * * * * * * * * * * * * * * * //

dimensions      [0 2 -2 0 0 0 0];

internalField   nonuniform List<scalar> 
77061
(
-201.918
-202.816
-204.644
-217.418
-203.228
-208.828
-213.486
-221.773
-204.407
-207.992
-205.888
-224.432
-232.013
-214.013
-210.468
-204.618
-208.862
-202.91
-201.614
-197.413
-198.387
-211.231
-212.398
-206.954
-212.309
-228.853
-222.794
-241.732
-204.073
-207.639
-208.224
-209.541
-206.771
-220.733
-217.557
-241.053
-232.146
-219.573
-217.095
-237.649
-249.229
-240.401
-229.644
-248.465
-227.249
-211.526
-219.623
-202.582
-207.436
-202.935
-203.004
-198.875
-199.661
-210.75
-209.044
-209.593
-199.154
-195.343
-222.695
-228.511
-219.333
-217.873
-206.212
-212.794
-212.722
-254.23
-240.451
-259.75
-207.507
-209.648
-209.399
-208.357
-209.898
-225.386
-223.542
-215.43
-216.575
-224.61
-211.169
-261.963
-236.6
-233.683
-249.512
-236.558
-248.239
-238.548
-226.999
-249.964
-238.582
-216.729
-204.703
-217.333
-207.359
-209.154
-212.777
-228.188
-200.559
-198.848
-208.214
-201.036
-200.65
-195.895
-196.698
-223.393
-222.436
-205.726
-197.533
-193.519
-232.603
-244.894
-219.67
-218.03
-206.293
-212.65
-220.277
-220.559
-213.609
-211.737
-254.34
-270.933
-255.451
-209.6
-210.135
-208.29
-209.38
-207.178
-209.628
-212.894
-232.893
-217.392
-217.578
-224.245
-218.903
-209.922
-212.926
-212.984
-228.845
-212.054
-237.885
-203.186
-262.077
-262.512
-237.106
-249.025
-234.123
-247.134
-214.849
-225.481
-209.009
-206.331
-214.593
-223.994
-223.829
-215.942
-233.273
-203.642
-199.398
-216.02
-206.137
-207.042
-212.174
-199.708
-196.129
-194.258
-199.399
-198.678
-192.833
-193.888
-247.693
-218.972
-236.441
-202.88
-246.547
-216.719
-218.601
-215.281
-218.951
-207.385
-211.966
-208.912
-205.091
-202.023
-200.694
-213.613
-235.027
-223.497
-243.001
-212.618
-241.559
-243.194
-220.802
-265.171
-223.011
-209.466
-210.112
-206.925
-206.929
-206.094
-203.514
-201.217
-212.952
-209.806
-207.686
-208.943
-209.601
-215.436
-196.582
-209.366
-209.436
-232.735
-249.336
-220.398
-220.791
-219.068
-214.775
-207.035
-219.617
-194.812
-222.742
-204.983
-205.374
-197.054
-199.518
-198.261
-264.38
-223.846
-262.758
-249.029
-224.559
-191.912
-202.687
-196.009
-201.385
-205.628
-211.151
-196.408
-203.209
-221.075
-205.79
-207.048
-216.582
-239.897
-226.499
-224.481
-216.66
-197.074
-203.047
-195.838
-213.418
-204.711
-204.038
-211.202
-194.738
-201.171
-189.966
-194.69
-198.851
-192.413
-199.348
-191.023
-250.45
-216.439
-237.24
-223.513
-216.646
-217.685
-231.202
-219.217
-238.31
-226.295
-233.083
-207.908
-205.475
-212.709
-210.608
-206.813
-208.185
-204.707
-205.919
-201.499
-212.625
-247.668
-243.369
-261.999
-209.442
-210.082
-194.209
-243.707
-214.129
-209.202
-209.831
-206.154
-206.3
-203.498
-204.497
-204.308
-200.377
-200.642
-198.159
-190.474
-198.239
-205.142
-197.417
-207.367
-197.731
-197.67
-214.222
-205.656
-207.664
-201.868
-208.931
-211.729
-208.154
-195.62
-215.407
-226.426
-205.05
-210.745
-186.482
-225.613
-249.021
-220.375
-245.756
-215.327
-216.678
-214.814
-197.225
-189.958
-184.775
-202.087
-194.983
-192.298
-196.323
-195.372
-193.393
-199.164
-198.335
-190.507
-196.833
-195.776
-263.994
-221.399
-183.295
-187.458
-181.184
-190.068
-180.495
-185.774
-192.373
-188.677
-198.309
-216.112
-223.658
-196.422
-225.574
-203.691
-206.167
-204.491
-187.531
-208.164
-218.957
-242.999
-230.449
-225.269
-217.22
-191.517
-195.656
-209.559
-203.377
-203.19
-207.927
-202.098
-187.019
-183.913
-190.518
-190.003
-188.135
-199.071
-201.985
-192.584
-202.798
-193.226
-204.495
-190.016
-183.847
-184.683
-199.099
-193.017
-193.056
-198.92
-192.511
-200.938
-190.397
-240.166
-222.49
-236.45
-214.976
-212.703
-233.044
-224.153
-210.42
-226.631
-212.932
-220.255
-240.779
-238.617
-250.065
-234.336
-241.877
-204.776
-207.719
-203.928
-205.131
-201.948
-202.552
-270.921
-261.111
-202.196
-200.615
-187.974
-200.057
-183.761
-211.469
-242.911
-209.196
-206.805
-205.365
-205.645
-202.633
-203.777
-203.66
-198.725
-199.187
-204.474
-203.328
-200.184
-193.512
-196.367
-199.781
-192.074
-187.208
-191.873
-182.812
-185.513
-188.771
-184.477
-207.835
-198.364
-198.142
-214.211
-201.075
-205.643
-206.835
-201.871
-192.58
-212.947
-212.867
-205.981
-206.695
-195.719
-184.389
-212.802
-226.245
-210.73
-205.59
-224.497
-205.033
-180.529
-217.139
-217.513
-228.965
-236.821
-209.416
-189.38
-181.472
-180.157
-181.238
-186.132
-193.854
-185.971
-179.875
-197.67
-191.996
-192.872
-193.679
-195.149
-193.266
-194.424
-190.276
-191.303
-191.654
-198.845
-194.162
-196.29
-193.763
-185.588
-199.631
-198.912
-189.503
-183.686
-192.334
-186.773
-190.844
-185.034
-197.391
-196.172
-220.976
-175.613
-177.246
-187.688
-178.274
-182.996
-178.544
-183.924
-176.467
-177.316
-180.285
-186.348
-193.374
-188.273
-198.255
-224.441
-196.454
-223.729
-200.695
-202.113
-220.124
-232.728
-218.964
-232.278
-207.945
-209.77
-206.313
-186.385
-184.513
-191.273
-216.41
-195.156
-182.654
-216.696
-208.721
-243.035
-221.408
-185.836
-195.888
-207.858
-202.488
-202.094
-202.095
-206.699
-204.242
-201.323
-180.523
-177.885
-194.883
-182.227
-189.207
-203.961
-200.67
-204.139
-183.254
-189.567
-182.712
-184.263
-181.351
-202.15
-198.741
-197.648
-192.456
-192.424
-191.265
-189.923
-211.852
-228.896
-248.692
-236.693
-212.428
-227.291
-236.689
-225.596
-212.573
-236.578
-210.357
-202.685
-226.668
-210.971
-220.492
-259.126
-245.988
-202.256
-198.61
-201.74
-201.984
-198.676
-201.17
-200.309
-198.583
-263.509
-223.13
-188.276
-180.42
-201.035
-210.859
-201.285
-209.491
-203.247
-205.287
-205.174
-201.22
-204.016
-198.134
-199.053
-203.071
-203.029
-199.851
-193.961
-199.205
-196.007
-195.294
-194.983
-200.208
-204.231
-203.687
-203.309
-202.696
-188.808
-192.677
-195.843
-200.472
-187.665
-187.299
-178.693
-182.064
-178.735
-183.532
-207.826
-198.389
-198.192
-201.076
-206.145
-200.377
-192.611
-207.303
-197.831
-187.415
-203.306
-206.019
-197.077
-184.482
-209.454
-214.901
-209.327
-201.264
-174.691
-177.664
-177.596
-179.326
-178.747
-183.185
-190.532
-192.611
-191.298
-192.486
-192.283
-189.04
-193.053
-191.476
-190.732
-194.091
-192.332
-191.923
-195.256
-193.552
-194.807
-190.614
-188.212
-192.245
-186.965
-189.035
-193.166
-187.941
-198.568
-188.044
-191.695
-193.585
-176.337
-179.057
-182.19
-184.058
-199.808
-199.948
-189.075
-186.902
-192.415
-185.909
-183.811
-190.521
-182.364
-183.815
-180.738
-198.273
-196.93
-172.81
-172.489
-176.264
-171.964
-170.845
-172.481
-177.437
-173.286
-192.436
-178.428
-183.2
-179.103
-184.422
-174.545
-178.642
-174.891
-178.849
-175.555
-177.818
-187.811
-181.253
-193.353
-210.071
-185.498
-192.654
-184.217
-190.201
-186.254
-198.195
-194.48
-202.002
-192.728
-237.511
-226.059
-199.984
-193.41
-191.948
-221.503
-234.901
-218.97
-207.065
-230.461
-208.931
-210.207
-181.149
-180.08
-215.729
-214.647
-220.514
-207.293
-219.291
-183.689
-174.694
-186.671
-185.576
-179.029
-189.761
-185.503
-195.591
-190.201
-201.555
-201.766
-200.75
-204.748
-205.645
-200.286
-202.808
-179.516
-168.419
-172.694
-186.185
-203.313
-172.281
-184.01
-205.048
-188.768
-209.429
-210.581
-205.379
-182.48
-172.998
-189.605
-183.188
-182.661
-183.389
-175.453
-202.368
-196.727
-200.177
-196.452
-193.826
-191.462
-190.876
-189.735
-188.965
-207.526
-254.691
-248.686
-224.174
-244.858
-215.497
-207.268
-231.343
-220.208
-243.606
-229.249
-195.526
-207.251
-206.741
-214.853
-205.863
-207.464
-210.932
-203.682
-198.282
-205.768
-197.386
-198.605
-199.376
-201.258
-198.487
-195.956
-221.41
-207.544
-218.91
-254.555
-195.496
-199.689
-197.578
-199.389
-195.618
-197.508
-195.576
-212.852
-184.881
-180.071
-200.763
-190.638
-205.229
-197.84
-198.49
-197.9
-198.164
-200.655
-205.003
-201.816
-201.189
-196.791
-199.903
-193.727
-194.534
-195.472
-195.955
-199.289
-200.405
-201.4
-202.731
-202.493
-190.972
-196.059
-195.312
-200.166
-199.086
-195.002
-200.229
-192.121
-191.397
-196.455
-190.447
-190.382
-197.733
-200.78
-203.521
-203.006
-203.937
-205.524
-202.937
-202.672
-201.496
-187.665
-193.422
-190.369
-196.361
-186.264
-186.815
-178.782
-180.787
-182.146
-181.917
-174.167
-175.524
-177.456
-178.685
-187.253
-193.591
-198.653
-187.448
-186.608
-202.528
-205.351
-223.066
-227.315
-204.834
-196.769
-192.435
-169.604
-174.939
-171.768
-170.292
-172.095
-176.101
-175.177
-176.134
-173.798
-171.418
-176.346
-178.602
-182.532
-190.694
-188.552
-192.949
-191.481
-191.452
-189.899
-192.829
-192.104
-192.645
-190.956
-191.575
-191.061
-186.758
-186.816
-188.315
-192.479
-193.944
-193.43
-194.652
-190.512
-191.251
-189.016
-191.076
-190.96
-192.069
-190.956
-196.411
-193.701
-193.784
-194.373
-194.698
-195.731
-191.652
-188.611
-186.586
-185.236
-184.282
-193.256
-187.996
-189.786
-188.806
-183.879
-196.438
-178.028
-181.339
-181.457
-182.43
-190.091
-184.9
-184.473
-183.085
-195.199
-196.331
-192.008
-194.072
-173.513
-181.102
-200.421
-196.689
-199.691
-194.23
-189.261
-186.206
-192.88
-185.856
-182.646
-190.734
-177.831
-183.904
-183.427
-180.087
-199.091
-197.573
-170.574
-169.607
-172.547
-170.712
-171.121
-170.95
-168.781
-171.483
-170.165
-173.579
-171.722
-184.003
-181.595
-190.711
-180.992
-186.234
-174.75
-178.97
-175.908
-179.509
-177.6
-174.68
-175.966
-173.006
-175.359
-187.934
-183.585
-180.532
-185.513
-188.265
-196.467
-178.688
-190.502
-198.011
-194.929
-201.813
-193.855
-239.446
-217.538
-201.732
-231.117
-218.019
-206.473
-228.963
-210.422
-210.375
-178.461
-217.901
-213.238
-218.881
-211.497
-216.665
-205.032
-185.597
-174.497
-187.288
-179.112
-185.294
-194.592
-185.271
-190.024
-189.368
-201.975
-200.477
-200.056
-204.188
-200.617
-201.261
-199.161
-199.74
-203.879
-170.643
-164.023
-169.359
-185.831
-170.519
-201.436
-207.978
-194.313
-213.403
-211.797
-179.032
-200.462
-212.361
-171.389
-163.29
-186.597
-184.116
-189.19
-185.554
-192.235
-173.139
-170.515
-177.426
-165.536
-197.968
-196.44
-196.234
-196.47
-195.044
-191.322
-190.463
-190.832
-189.403
-255.823
-229.243
-250.217
-221.562
-209.613
-213.554
-220.501
-214.19
-197.675
-236.291
-222.489
-244.953
-231.08
-190.764
-185.277
-205.45
-208
-213.444
-204.631
-202.506
-205.593
-210.204
-198.648
-190.617
-193.497
-203.409
-197.164
-195.872
-206.291
-195.131
-196.522
-195.223
-195.13
-199.19
-200.035
-197.133
-193.786
-204.034
-215.218
-242.77
-192.468
-197.968
-193.019
-196.965
-192.707
-193.725
-192.264
-199.574
-181.164
-185.753
-189.13
-183.109
-192.12
-192.172
-184.61
-196.207
-199.732
-194.352
-195.415
-196.804
-197.438
-198.065
-200.033
-200.333
-201.296
-203.083
-202.902
-189.445
-193.75
-192.494
-192.512
-192.655
-195.419
-192.17
-191.413
-199.761
-199.911
-194.547
-196.056
-199.388
-200.438
-196.433
-190.368
-190.369
-197.782
-200.794
-200.025
-197.448
-196.836
-193.47
-192.642
-197.807
-199.058
-201.918
-205.257
-205
-201.523
-202.763
-202.477
-202.367
-201.482
-201.29
-199.699
-201.088
-190.869
-192.307
-188.998
-176.923
-181.97
-186.076
-172.713
-173.224
-173.593
-176.509
-182.006
-195.645
-193.937
-188.879
-198.087
-186.604
-189.95
-201.311
-205.193
-211.222
-223.398
-194.887
-190.275
-186.851
-170.184
-166.242
-179.003
-169.945
-172.746
-171.802
-176.324
-169.303
-167.517
-170.373
-169.878
-171.709
-171.305
-180.445
-171.907
-174.216
-172.618
-171.962
-171.896
-171.95
-173.863
-173.303
-179.983
-175.937
-177.158
-191.134
-188.5
-193.621
-191.223
-191.51
-192.183
-192.096
-191.596
-189.906
-190.695
-193.42
-192.208
-193.759
-192.853
-192.999
-190.826
-192.816
-191.304
-191.32
-191.491
-190.34
-189.557
-190.755
-186.328
-184.066
-184.033
-180.692
-186.36
-186.29
-188.067
-193.393
-190.755
-194.822
-194.182
-192.015
-195.367
-189.224
-190.692
-188.188
-188.311
-189.02
-189.673
-192.961
-192.715
-192.233
-191.694
-191.041
-196.552
-197.6
-196.818
-197.631
-194.206
-194.391
-194.857
-195.272
-196.396
-195.983
-195.676
-197.019
-193.535
-188.872
-186.582
-184.639
-183.29
-194.776
-190.661
-191.73
-181.799
-183.834
-178.756
-179.34
-195.069
-186.115
-201.225
-190.76
-170.909
-173.852
-178.278
-178.478
-183.205
-176.869
-195.643
-192.703
-173.627
-182.285
-200.235
-197.825
-197.879
-196.584
-198.343
-196.019
-194.072
-193.633
-189.755
-186.266
-193.488
-186.343
-182.581
-191.369
-180.818
-183.441
-175.91
-177.858
-175.059
-177.076
-179.637
-173.217
-176.974
-174.103
-194.93
-177.32
-178.145
-183.621
-180.157
-199.48
-197.743
-196.214
-197.25
-171.085
-169.24
-166.525
-167.746
-167.262
-169.364
-171.929
-166.898
-168.077
-166.271
-166.622
-176.112
-170.437
-170.736
-170.568
-168.798
-170.299
-170.604
-168.934
-167.369
-171.882
-169.943
-172.023
-171.694
-180.554
-183.698
-177.938
-180.741
-177.991
-176.769
-176.5
-175.959
-177.119
-173.882
-183.895
-181.179
-177.99
-187.258
-180.09
-175.94
-188.751
-200.801
-174.614
-177.146
-194.779
-199.842
-195.614
-202.253
-194.573
-219.277
-205.616
-228.454
-216.35
-210.052
-204.827
-226.215
-211.195
-215.914
-213.609
-209.912
-225.218
-214.412
-202.884
-211.819
-208.381
-187.814
-174.998
-186.963
-178.269
-185.14
-194.786
-178.483
-185.986
-199.549
-201.398
-200.449
-199.023
-203.653
-201.122
-203.41
-199.181
-202.798
-168.989
-168.233
-206.626
-199.29
-213.935
-210.181
-212.858
-187.778
-216.564
-213.699
-167.915
-188.668
-204.37
-161.547
-190.374
-182.413
-177.594
-187.332
-182.809
-195.321
-163.582
-163.694
-169.043
-197.193
-194.692
-196.46
-196.757
-192.439
-192.404
-191.488
-227.159
-241.62
-212.452
-223.016
-197.096
-215.221
-220.106
-214.218
-189.751
-238.455
-226.649
-228.3
-182.111
-181.278
-186.186
-195.358
-186.568
-180.29
-199.856
-209.539
-212.228
-203.545
-202.076
-204.141
-209.331
-195.568
-199.32
-183.971
-189.18
-192.08
-186.565
-191.008
-192.253
-185.236
-193.167
-193.217
-194.335
-193.73
-204.755
-197.905
-196.479
-207.24
-195.634
-191.641
-192.994
-192.129
-194.208
-199.93
-202.511
-214.578
-189.871
-197.372
-190.979
-195.821
-192.677
-188.246
-192.71
-187.789
-183.512
-195.952
-200.479
-193.978
-197.776
-192.278
-195.178
-197.24
-200.345
-196.593
-197.814
-198.01
-197.793
-198.842
-198.437
-199.207
-201.2
-200.447
-200.698
-201.275
-203.352
-190.748
-197.774
-197.213
-191.024
-197.143
-193.738
-196.93
-197.534
-198.236
-200.108
-200.143
-201.264
-199.938
-196.794
-197.295
-192.595
-193.262
-197.834
-187.593
-199.12
-200.472
-200.725
-200.71
-203.238
-203.244
-199.358
-196.641
-196.072
-198.642
-204.819
-201.313
-201.456
-201.748
-205.4
-202.336
-202.718
-202.526
-201.187
-199.819
-201.065
-200.799
-200.636
-199.831
-200.946
-199.65
-197.952
-200.135
-201.79
-200.825
-196.302
-173.799
-185.879
-195.037
-172.079
-171.281
-173.981
-170.43
-169.754
-171.58
-174.783
-173.192
-171.797
-174.456
-172.181
-172.892
-176.223
-193.94
-176.59
-176.564
-205.522
-189.867
-205.04
-202.406
-204.767
-188.01
-191.63
-181.695
-166.001
-164.427
-165.285
-165.808
-163.611
-164.415
-180.404
-177.91
-175.98
-174.371
-178.844
-167.182
-169.94
-169.464
-169.652
-179.732
-167.028
-164.719
-168.353
-167.798
-174.406
-169.733
-174.57
-177.139
-177.107
-187.153
-188.248
-188.033
-189.781
-174.218
-169.736
-171.531
-175.139
-171.687
-172.002
-170.613
-172.464
-172.792
-190.474
-191.766
-191.201
-192.395
-191.435
-192.371
-188.772
-194.146
-193.303
-194.649
-194.647
-193.536
-193.284
-190.269
-191.656
-191.712
-190.721
-192.469
-192.142
-191.715
-192.015
-190.719
-189.907
-189.322
-192.907
-193.814
-192.401
-192.592
-192.274
-193.168
-191.93
-192.22
-194.25
-193.738
-191.851
-191.265
-191.93
-189.723
-186.883
-188.271
-190.238
-191.539
-189.387
-190.536
-182.821
-179.71
-183.925
-180.522
-191.638
-190.259
-190.465
-191.271
-182.616
-185.659
-186.421
-187.195
-187.991
-188.979
-188.286
-194.678
-191.291
-195.812
-195.178
-192.556
-196.107
-189.332
-191.011
-186.172
-188.932
-188.165
-189.667
-193.337
-193.153
-192.532
-191.955
-191.504
-196.924
-197.133
-194.776
-195.111
-195.348
-195.789
-196.708
-195.901
-188.777
-187.049
-183.994
-183.269
-195.784
-193.353
-181.746
-179.178
-174.025
-178.413
-179.948
-186.055
-187.673
-183.885
-184.534
-183.141
-176.351
-175.965
-178.958
-174.897
-182.118
-190.731
-200.255
-168.177
-167.737
-176.385
-176.395
-175.065
-167.72
-195.563
-192.555
-199.287
-197.754
-197.419
-197.857
-197.579
-192.956
-197.405
-194.906
-191.522
-190.689
-190.236
-192.026
-186.693
-193.913
-194.877
-193.477
-187.126
-182.953
-192.208
-183.583
-181.347
-178.231
-171.207
-175.604
-179.55
-177.75
-171.822
-175.922
-171.053
-171.422
-184.145
-199.066
-200.28
-185.334
-210.644
-197.953
-199.925
-184.081
-180.492
-199.309
-196.239
-203.01
-197.391
-196.29
-197.296
-196.231
-197.156
-170.382
-166.658
-167.992
-167.905
-165.397
-166.612
-167.253
-166.415
-167.8
-173.275
-169.8
-169.17
-168.618
-167.332
-168.76
-169.433
-167.217
-166.99
-171.631
-178.986
-181.71
-176.291
-177.481
-178.081
-178.68
-182.544
-178.631
-189.134
-195.81
-182.649
-184.288
-177.168
-176.461
-193.029
-201.792
-175.164
-182.715
-195.177
-202.399
-228.471
-211.8
-214.338
-209.708
-202.788
-212.096
-209.453
-220.807
-211.416
-211.793
-229.051
-222.037
-201.426
-210.018
-207.213
-208.501
-205.999
-217.469
-210.235
-187.482
-174.298
-189.467
-182.855
-178.85
-175.109
-183.203
-195.93
-174.352
-184.821
-199.935
-201.212
-198.985
-203.575
-200.464
-203.474
-198.248
-202.181
-165.287
-208.734
-198.991
-217.076
-213.635
-215.202
-177.925
-220.793
-214.361
-163.065
-194.36
-183.339
-190.646
-193.838
-187.4
-177.418
-167.416
-187.175
-181.128
-168.42
-195.287
-196.113
-195.725
-192.59
-193.47
-229.139
-216.079
-197.166
-224.809
-208.395
-215.011
-232.041
-210.682
-224.857
-188.003
-217.964
-219.129
-214.047
-235.203
-224.289
-178.473
-178.224
-178.431
-180.597
-192.426
-184.375
-199.771
-210.81
-203.114
-208.577
-202.458
-204.04
-195.842
-200.303
-182.983
-190.517
-189.109
-186.631
-191.316
-192.473
-192.289
-192.353
-189.309
-186.18
-183.718
-190.914
-192.535
-182.428
-181.721
-184.343
-191.761
-193.58
-193.732
-192.557
-194.985
-190.832
-192.056
-206.461
-198.804
-197.348
-207.479
-217.851
-213.199
-196.373
-189.621
-188.525
-192.354
-192.219
-185.421
-189.082
-190.59
-196.323
-194.42
-194.655
-192.003
-200.493
-196.838
-194.983
-203.57
-213.373
-193.551
-190.443
-186.153
-187.036
-196.439
-201.393
-195.71
-199.17
-197.066
-197.042
-196.105
-198.754
-193.637
-195.861
-197.711
-197.914
-201.183
-200.755
-203.768
-203.396
-202.2
-201.42
-199.87
-199.828
-198.886
-200.084
-199.387
-200.07
-199.795
-198.876
-198.422
-202.013
-200.671
-196.109
-202.496
-202.643
-189.389
-195.37
-193.188
-194.068
-192.21
-193.697
-198.117
-194.421
-200.142
-197.258
-197.601
-197.597
-197.961
-198.509
-199.136
-199.41
-200.924
-200.211
-200.438
-200.309
-203.197
-203.116
-200.698
-200.68
-199.227
-196.001
-196.482
-190.661
-198.728
-200.404
-202.918
-200.433
-202.987
-198.444
-199.796
-202.492
-202.419
-205.385
-205.554
-199.488
-201.486
-203.055
-201.769
-205.455
-201.142
-201.848
-203.034
-200.364
-200.807
-200.144
-200.909
-199.55
-198.447
-200.24
-201.545
-200.746
-201.488
-199.705
-200.307
-200.075
-199.451
-199.972
-202.087
-200.668
-198.828
-199.966
-199.883
-201.569
-199.76
-200.212
-201.443
-201.132
-200.293
-205.064
-170.841
-194.894
-197.671
-205.896
-199.12
-172.031
-169.767
-170.255
-171.42
-171.724
-168.811
-171.465
-174.98
-170.697
-173.625
-171.117
-170.895
-173.672
-176.424
-183.749
-183.577
-198.47
-198.055
-211.812
-198.473
-209.29
-187.292
-164.523
-165.389
-163.636
-166.303
-164.731
-166.598
-164.904
-163.381
-164.081
-163.283
-164.014
-178.885
-176.939
-173.826
-173.972
-172.923
-181.871
-164.833
-169.871
-168.761
-168.634
-166.053
-170.401
-173.034
-169.717
-171.329
-167.699
-167.977
-174.564
-176.82
-187.808
-187.502
-188.324
-189.56
-170.407
-165.5
-164.872
-167.452
-161.935
-162.676
-165.083
-163.081
-166.377
-166.085
-171.695
-168.858
-182.994
-171.769
-183.441
-171.98
-199.502
-175.194
-176.569
-172.131
-174.604
-172.673
-175.18
-176.196
-176.649
-174.247
-171.411
-173.736
-166.672
-174.205
-171.206
-189.169
-191.711
-191.452
-190.097
-192.692
-192.6
-190.453
-187.97
-188.954
-189.47
-194.521
-193.626
-194.938
-193.788
-191.858
-191.073
-191.778
-190.893
-192.617
-192.439
-191.91
-191.325
-192.267
-190.395
-190.727
-190.033
-193.244
-194.211
-192.648
-192.905
-192.568
-193.422
-192.35
-192.147
-192.479
-188.84
-190.295
-192.386
-192.897
-195.781
-195.467
-195.019
-191.421
-190.085
-188.66
-185.57
-186.466
-187.63
-189.63
-197.481
-187.982
-191.698
-188.734
-189.362
-189.621
-190.061
-190.52
-179.516
-189.607
-177.78
-186.469
-173.087
-200.099
-198.018
-181.828
-180.589
-182.527
-183.737
-184.357
-185.355
-185.881
-186.767
-186.752
-185.533
-186.673
-187.871
-187.325
-188.434
-188.083
-189.111
-191.288
-196.663
-192.549
-196.723
-189.645
-191.449
-186.074
-189.33
-190.056
-191.714
-193.322
-193.1
-192.787
-192.217
-191.776
-192.857
-192.506
-196.868
-197.13
-195.703
-196.327
-196.748
-195.978
-189.083
-184.364
-195.783
-193.33
-172.387
-179.503
-170.371
-181.586
-187.807
-177.95
-183.838
-183.494
-183.567
-187.452
-183.181
-174.099
-177.757
-177.045
-174.874
-180.052
-182.168
-179.93
-170.946
-173.179
-165.593
-182.513
-200.626
-168.291
-167.237
-175.845
-196.249
-198.175
-196.372
-196.834
-191.806
-192.721
-192.916
-189.177
-188.406
-197.161
-194.566
-191.265
-190.9
-189.408
-190.576
-191.055
-192.308
-192.21
-187.163
-188.191
-194.029
-195.025
-195.051
-193.653
-193.756
-188.034
-183.62
-192.908
-186.031
-184.521
-184.158
-182.605
-185.412
-183.911
-184.469
-181.644
-182.958
-178.41
-164.65
-171.68
-175.557
-173.26
-178.33
-180.692
-179.782
-182.031
-180.586
-182.723
-177.861
-172.068
-178.776
-181.122
-163.78
-174.202
-175.285
-197.721
-214.684
-201.098
-200.311
-214.67
-221.966
-220.526
-206.71
-209.03
-213.163
-209.682
-215.378
-215.628
-211.823
-211.424
-187.001
-184.48
-185.79
-180.909
-196.245
-198.762
-196.34
-203.181
-202.952
-196.097
-196.778
-195.912
-196.533
-167.373
-165.59
-165.34
-166.659
-168.185
-166.201
-170.55
-175.166
-176.821
-171.338
-172.859
-168.115
-174.33
-168.401
-167.735
-166.879
-166.939
-165.946
-181.391
-174.777
-179.801
-184.69
-177.715
-178.042
-192.164
-188.678
-186.566
-179.31
-182.93
-197.252
-196.632
-196.237
-175.248
-171.43
-203.185
-183.443
-203.319
-223.653
-214.391
-209.85
-201.216
-206.627
-208.382
-204.809
-218.166
-211.917
-223.085
-205.874
-213.459
-208.475
-211.392
-207.536
-220.061
-208.834
-192.899
-183.483
-180.053
-176.901
-174.185
-181.539
-172.643
-181.828
-198.915
-197.382
-201.202
-198.539
-203.157
-201.569
-194.279
-200.051
-202.139
-203.528
-201.404
-197.443
-202.302
-198.884
-202.44
-165.947
-211.512
-220.623
-218.208
-216.576
-165.835
-161.621
-194.364
-182.117
-190.045
-193.31
-186.136
-175.308
-171.168
-185.25
-177.466
-197.956
-194.668
-196.379
-197.834
-222.822
-218.171
-195.845
-186.97
-237.386
-228.621
-211.594
-217.287
-219.277
-224.159
-216.084
-233.607
-217.359
-178.628
-176.037
-176.248
-179.434
-190.017
-182.535
-200.769
-208.649
-203.21
-207.443
-203.2
-201.406
-205.917
-204.866
-197.257
-195.713
-197.179
-195.976
-201.089
-197.781
-197.669
-181.679
-190.663
-188.666
-189.402
-186.347
-191.61
-191.509
-190.062
-191.242
-192.198
-191.753
-192.728
-191.344
-192.786
-192.865
-186.675
-188.407
-186.57
-186.208
-183.125
-191.305
-193.151
-177.261
-183.688
-179.77
-179.504
-182.098
-180.862
-183.89
-190.921
-192.898
-193.764
-194.472
-195.003
-193.845
-194.012
-194.431
-194.94
-192.423
-195.397
-194.908
-196.5
-195.691
-189.129
-191.196
-208.107
-200.025
-198.094
-195.798
-196.977
-206.337
-216.886
-215.678
-208.737
-211.237
-196.076
-188.93
-189.821
-193.07
-192.674
-183.717
-188.778
-180.549
-185.796
-190.931
-187.348
-192.835
-189.762
-195.07
-192.553
-197.602
-200.23
-197.335
-195.812
-195.491
-208.246
-192.319
-188.748
-195.42
-197.464
-202.223
-197.627
-198.23
-200.163
-198.475
-200.621
-198.73
-197.819
-196.623
-200.125
-202.629
-198.369
-201.334
-201.412
-205.011
-202.944
-205.188
-200.278
-200.317
-203.344
-202.85
-198.768
-200.407
-200.804
-205.095
-199.34
-199.03
-201.329
-199.783
-199.527
-200.128
-199.558
-200.572
-198.917
-197.699
-201.333
-200.234
-204.352
-192.254
-191.048
-198.013
-193.899
-194.627
-195.652
-195.054
-195.866
-195.539
-197.394
-198.024
-197.16
-195.514
-199.116
-200.724
-200.186
-203.247
-201.533
-203.988
-201.559
-199.852
-199.441
-198.155
-197.563
-198.912
-199.798
-200.428
-200.11
-201.088
-200.368
-202.918
-200.161
-202.717
-198.374
-199.586
-205.507
-205.225
-202.466
-202.38
-199.345
-196.899
-201.204
-204.288
-201.284
-204.485
-197.413
-198.584
-209.605
-202.975
-202.932
-202.158
-200.716
-200.934
-200.989
-200.28
-200.465
-200.506
-199.919
-200.466
-201.375
-200.675
-199.032
-199.749
-199.593
-200.364
-199.825
-200.311
-201.141
-200.948
-200.086
-201.137
-201.189
-200.649
-200.201
-200.169
-200.49
-199.693
-199.667
-199.383
-200.09
-197.895
-199.904
-199.269
-199.947
-202.063
-201.354
-198.56
-199.085
-199.278
-197.691
-199.742
-196.99
-200.014
-201.115
-200.562
-200.414
-199.887
-200.893
-208.103
-170.519
-172.992
-167.646
-168.556
-197.526
-205.861
-198.948
-209.394
-207.761
-212.622
-212.303
-172.672
-169.161
-170.205
-165.884
-170.841
-170.818
-167.476
-171.526
-175.078
-165.242
-171.332
-173.464
-174.146
-173.964
-170.232
-174.999
-167.454
-176.973
-196.297
-214.672
-197.312
-195.957
-214.566
-215.743
-222.639
-223.136
-211.102
-216.917
-206.669
-165.108
-163.585
-163.304
-164.931
-167.03
-164.645
-164.535
-163.38
-164.255
-164.028
-165.173
-178.523
-176.698
-171.55
-172.34
-175.993
-178.66
-173.664
-175.295
-171.797
-173.406
-172.329
-193.56
-165.294
-161.901
-162.94
-163.279
-169.356
-169.832
-167.265
-170.34
-166.934
-162.901
-170.836
-172.298
-166.352
-170.738
-166.94
-168.494
-170.2
-167.74
-166.533
-184.774
-184.259
-198.755
-199.658
-164.985
-164.769
-161.018
-163.251
-161.74
-163.341
-162.655
-166.872
-165.328
-167.851
-163.605
-170.346
-167.193
-175.286
-166.804
-175.505
-197.98
-167.554
-210.363
-177.634
-169.219
-180.005
-172.056
-178.195
-177.1
-174.041
-191.907
-190.699
-191.646
-190.328
-192.909
-192.77
-189.696
-189.22
-194.852
-193.901
-195.055
-193.935
-192.053
-191.237
-190.874
-192.647
-192.086
-191.436
-192.514
-190.58
-190.9
-189.926
-193.298
-192.915
-193.072
-192.814
-192.227
-192.705
-192.52
-191.633
-190.881
-192.63
-192.261
-192.305
-189.096
-190.469
-188.273
-189.983
-192.411
-193.021
-193.032
-192.145
-190.581
-195.463
-194.161
-197.042
-188.494
-187.703
-183.243
-184.152
-184.948
-184.878
-186.103
-186.353
-187.293
-187.675
-188.473
-189.227
-200.998
-200.459
-192.757
-195.285
-205.115
-184.754
-189.999
-188.881
-189.445
-189.821
-190.226
-179.827
-178.018
-177.355
-174.827
-201.498
-184.585
-172.006
-166.484
-174.72
-171.048
-178.238
-163.147
-207.669
-205.935
-181.634
-183.655
-185.392
-186.856
-187.586
-186.983
-188.685
-188.131
-187.913
-188.959
-191.44
-196.603
-192.604
-196.696
-186.068
-188.731
-190.217
-189.931
-191.767
-191.691
-193.343
-193.125
-191.315
-192.984
-192.573
-192.501
-192.976
-195.77
-196.349
-188.966
-183.817
-170.739
-173.297
-180.565
-178.166
-179.875
-176.934
-183.407
-186.981
-183.922
-187.035
-185.437
-183.791
-177.851
-188.695
-164.121
-170.374
-167.782
-170.478
-169.539
-173.865
-179.748
-174.879
-169.975
-165.071
-167.95
-168.908
-175.693
-193.766
-194.982
-194.606
-195.401
-194.717
-197.355
-195.673
-196.107
-189.41
-190.231
-193.729
-191.261
-187.397
-186.387
-193.187
-190.264
-189.619
-192.146
-190.852
-187.531
-191.751
-189.781
-192.892
-188.604
-188.417
-194.404
-193.986
-194.998
-193.958
-188.932
-184.431
-193.569
-186.358
-184.907
-185.75
-184.32
-184.72
-181.53
-184.872
-183.224
-183.365
-178.38
-156.638
-164.2
-171.367
-174.869
-175.179
-171.912
-176.583
-170.632
-173.595
-177.697
-181.091
-180.368
-183.195
-182.573
-179.009
-177.133
-171.748
-178.971
-181.4
-181.428
-161.826
-175.624
-170.986
-156.283
-205.59
-207.276
-180.292
-181.482
-224.566
-203.873
-213.432
-213.676
-186.595
-209.488
-183.142
-225.024
-229.327
-220.451
-227.702
-217.879
-219.359
-211.113
-214.251
-208.591
-211.669
-213.778
-214.563
-211.315
-209.933
-187.225
-187.401
-184.693
-186.028
-186.213
-181.359
-199.883
-198.121
-204.084
-195.309
-195.444
-194.848
-195.282
-194.974
-196.244
-195.597
-195.917
-166.74
-165.555
-164.842
-166.046
-167.575
-178.824
-174.195
-170.504
-176.176
-171.213
-169.476
-166.51
-166.098
-179.907
-181.445
-186.963
-179.543
-181.981
-179.96
-182.517
-193.69
-191.275
-190.154
-193.034
-186.285
-183.832
-198.461
-197.523
-178.359
-172.852
-176.093
-185.943
-175.257
-205.263
-223.829
-215.03
-214.771
-205.908
-210.319
-212.297
-208.348
-207.995
-209.764
-207.438
-211.753
-216.25
-206.847
-214.518
-207.719
-189.853
-183.787
-178.457
-177.05
-173.018
-180.603
-201.244
-202.486
-201.676
-194.618
-198.505
-190.747
-190.687
-193.492
-192.461
-197.111
-197.524
-202.03
-201.029
-201.17
-203.936
-203.007
-206.063
-202.186
-198.492
-199.262
-192.775
-198.719
-201.046
-174.053
-168.353
-163.867
-171.941
-167.189
-187.646
-178.157
-171.545
-185.886
-178.632
-200.258
-220.182
-186.253
-187.996
-180.625
-199.72
-193.339
-203.63
-188.657
-242.806
-235.366
-215.947
-218.059
-223.827
-222.572
-209.614
-230.262
-208.674
-175.863
-177.111
-175.465
-178.918
-193.678
-206.033
-205.8
-202.56
-199.512
-204.664
-203.529
-201.215
-196.351
-196.565
-198.461
-200.99
-198.221
-198.347
-198.109
-181.561
-190.008
-190.72
-191.221
-191.743
-188.543
-189.891
-190.195
-191.508
-186.447
-191.8
-190.924
-191.613
-191.221
-192.269
-192.085
-190.016
-191.618
-191.551
-192.419
-191.77
-192.75
-190.668
-189.773
-190.924
-193.445
-193.751
-192.881
-192.939
-194.021
-193.911
-192.7
-192.893
-184.567
-182.097
-186.59
-184.43
-187.158