/*--------------------------------*- C++ -*----------------------------------*\
  =========                 |
  \\      /  F ield         | OpenFOAM: The Open Source CFD Toolbox
   \\    /   O peration     | Website:  https://openfoam.org
    \\  /    A nd           | Version:  12
     \\/     M anipulation  |
\*---------------------------------------------------------------------------*/
FoamFile
{
    format      ascii;
    class       volScalarField;
    location    "0";
    object      p;
}
// * * * * * * * * * * * * * * * * * * * * * * * * * * * * * * * * * * * * * //

dimensions      [0 2 -2 0 0 0 0];

internalField   nonuniform List<scalar> 
79729
(
-452.802
-453.834
-453.256
-455.819
-454.514
-453.904
-453.746
-459.346
-454.555
-456.519
-454.971
-455.565
-453.784
-454.273
-456.241
-463.145
-459.554
-459.401
-453.027
-455.844
-456.822
-457.214
-454.475
-455.874
-452.815
-454.41
-454.485
-456.457
-457.1
-455.368
-456.611
-455.808
-451.81
-458.956
-455.555
-464.543
-464.711
-462.434
-458.41
-459.598
-458.856
-459.254
-452.201
-454.746
-451.351
-456.684
-456.228
-457.931
-453.501
-455.119
-452.103
-453.917
-450.979
-453.369
-454.909
-456.369
-457.813
-456.79
-455.897
-459.803
-457.119
-460.839
-455.522
-455.471
-458.931
-456.892
-458.099
-457.066
-455.554
-461.836
-458.675
-466.401
-461.774
-463.521
-465.364
-463.145
-460.585
-461.665
-456.828
-457.189
-458.857
-459.102
-458.493
-459.832
-455.773
-450.166
-451.907
-455.791
-455.475
-457.053
-452.822
-454.716
-452.235
-449.628
-452.617
-452.619
-454.362
-451.153
-449.033
-455.065
-456.957
-458.661
-456.795
-458.359
-459.106
-454.837
-456.748
-458.932
-460.146
-460.399
-457.253
-457.669
-456.698
-461.01
-455.591
-457.792
-458.146
-459.442
-459.069
-455.858
-458.551
-462.812
-460.782
-462.134
-463.433
-464.174
-469.849
-453.562
-460.937
-462.053
-462.292
-465.963
-463.732
-463.049
-461.365
-460.459
-460.933
-455.05
-456.975
-459.104
-459.039
-461.538
-453.261
-448.798
-450.224
-453.304
-454.826
-456.37
-455.048
-450.874
-453.694
-450.86
-449.829
-446.551
-454.275
-452.815
-451.097
-455.94
-448.786
-452.753
-449.325
-457.591
-458.046
-460.221
-460.591
-457.495
-458.061
-457.353
-457.39
-457.366
-458.199
-455.171
-457.686
-453.209
-452.73
-457.35
-455.555
-456.67
-455.461
-460.152
-454.229
-455.927
-462.128
-452.575
-457.095
-457.64
-455.822
-457.216
-462.268
-461.894
-460.923
-462.312
-453.484
-461.085
-461.659
-467.771
-456.163
-465.505
-470.009
-474.561
-449.989
-454.402
-460.908
-459.467
-461.878
-461.511
-464.354
-462.321
-462.96
-460.489
-451.728
-456.099
-458.939
-458.97
-459.711
-460.763
-456.567
-467.436
-447.703
-448.436
-461.858
-448.272
-457.262
-453.121
-451.483
-457.609
-453.855
-455.909
-454.531
-448.56
-446.414
-451.32
-444.42
-444.538
-450.971
-454.3
-449.93
-447.527
-447.464
-456.228
-447.931
-447.132
-443.318
-455.61
-455.943
-456.959
-459.716
-459.296
-455.645
-455.32
-451.626
-453.042
-451.686
-457.545
-454.459
-452.124
-460.101
-456.253
-459.528
-455.537
-459.338
-456.95
-461.102
-461.901
-462.319
-452.677
-453.516
-449.378
-454.043
-459.206
-453.436
-448.355
-459.241
-452.011
-451.911
-448.988
-452.683
-449.95
-455.324
-448.942
-455.717
-460.45
-459.812
-457.323
-452.582
-458.925
-458.88
-463.641
-456.171
-470.589
-471.471
-459.616
-448.785
-475.9
-448.388
-450.42
-455.213
-454.676
-459.656
-460.797
-464.584
-461.086
-463.957
-463.455
-464.091
-454.209
-459.432
-459.768
-455.771
-450.635
-464.329
-467.865
-464.526
-458.475
-472.412
-453.075
-444.177
-448.054
-462.253
-465.31
-468.097
-462.902
-473.612
-448.682
-456.933
-451.5
-450.067
-457.864
-452.955
-446.768
-447.541
-443.435
-444.105
-441.245
-444.126
-445.618
-441.378
-441.369
-452.502
-444.627
-463.42
-452.987
-459.432
-452.179
-458.242
-447.92
-443.003
-444.725
-440.04
-449.626
-455.784
-454.14
-452.947
-449.597
-458.049
-449.453
-455.201
-459.132
-453.256
-454.458
-448.765
-457.078
-462.529
-464.011
-462.361
-463.362
-449.585
-460.183
-456.803
-455.755
-460.649
-452.793
-451.863
-448.154
-440.935
-447.753
-447.993
-452.2
-448.386
-445.491
-442.073
-437.711
-451.778
-448.879
-446.267
-444.363
-441.211
-450.722
-446.782
-452.111
-445.734
-450.048
-478.18
-461.647
-453.411
-443.803
-480.367
-446.092
-439.076
-448.742
-453.687
-450.14
-455.397
-456.773
-462.347
-465.673
-466.017
-464.357
-465.074
-464.432
-453.519
-460.102
-447.728
-446.81
-446.326
-438.68
-456.017
-446.949
-456.567
-452.455
-470.361
-475.35
-469.382
-479.037
-452.565
-456.465
-445.592
-433.579
-441.584
-437.983
-449.702
-467.814
-467.98
-475.916
-460.477
-466.925
-471.502
-465.277
-478.13
-451.276
-445.159
-439.95
-438.608
-440.467
-437.255
-436.667
-437.315
-450.822
-442.261
-458.148
-467.298
-469.573
-472.418
-466.168
-464.08
-462.366
-447.266
-452.969
-459.153
-450.802
-457.933
-439.345
-457.126
-437.412
-452.609
-444.21
-450.825
-436.908
-440.659
-436.337
-442.301
-443.022
-435.782
-442.423
-436.339
-441.222
-452.676
-448.254
-448.126
-448.26
-446.612
-444.64
-462.026
-461.317
-452.734
-438.158
-453.263
-456.871
-449.654
-447.359
-448.868
-442.353
-449.682
-456.31
-462.12
-461.56
-457.917
-441.322
-447.146
-450.535
-447.394
-450.339
-455.535
-442.776
-432.934
-437.126
-436.69
-442.349
-439.492
-445.703
-442.022
-441.424
-446.443
-445.564
-450.753
-435.627
-425.188
-434.989
-440.216
-430.616
-431.677
-438.828
-436.143
-440.956
-433.646
-439.126
-441.783
-438.526
-441.737
-444.94
-486.943
-457.157
-446.504
-439.313
-434.817
-461.566
-451.25
-434.99
-441.25
-449.938
-463.268
-464.145
-468.017
-461.783
-466.509
-459.837
-437.769
-438.706
-446.508
-440.538
-429.126
-434.757
-439.628
-434.752
-438.014
-460.049
-446.893
-458.17
-475.273
-485.755
-474.669
-482.645
-456.21
-461.24
-447.151
-436.191
-421.139
-430.047
-434.807
-436.223
-427.978
-427.027
-442.808
-438.595
-435.69
-449.653
-435.628
-472.667
-471.438
-481.655
-464.76
-469.61
-475.423
-467.55
-487.008
-436.757
-436.694
-431.302
-428.26
-430.654
-428.734
-430.758
-432.438
-449.552
-462.755
-457.456
-471.145
-466.153
-474.73
-470.251
-478.57
-474.246
-467.688
-465.918
-451.23
-464.077
-465.821
-458.903
-440.152
-444.505
-439.403
-437.083
-445.804
-439.655
-445.025
-453.595
-447.359
-456.732
-448.738
-449.693
-455.253
-458.107
-449.534
-456.663
-445.257
-427.972
-435.758
-430.726
-458.363
-445.226
-425.848
-435.494
-433.494
-441.307
-441.963
-433.013
-441.037
-432.987
-433.246
-437.386
-442.913
-437.268
-442.719
-440.141
-445.787
-441.033
-435.12
-443.322
-436.473
-467.033
-464.974
-469.139
-451.025
-453.094
-426.656
-442.604
-435.737
-441.527
-432.192
-433.247
-439.965
-449.074
-435.903
-442.317
-448.112
-447.247
-450.761
-452.053
-457.174
-434.122
-438.676
-442.332
-437.907
-443.193
-454.385
-448.794
-450.066
-456.006
-428.919
-431.582
-432.131
-427.288
-427.643
-431.727
-438.698
-444.148
-435.027
-438.606
-441.117
-441.772
-437.798
-429.63
-417.749
-428.927
-415.446
-423.624
-416.511
-423.579
-422.838
-427.18
-436.154
-425.727
-435.552
-429.941
-431.379
-434.553
-438.662
-440.869
-485.804
-444.955
-453.798
-438.306
-437.526
-434.374
-437.555
-438.517
-434.817
-457.814
-448.609
-433.875
-436.455
-467.688
-462.282
-467.269
-434.543
-444.206
-419.103
-423.441
-429.347
-430.168
-421.438
-429.486
-434.408
-436.688
-429.043
-437.331
-430.591
-459.972
-446.096
-459.371
-477.876
-494.616
-480.06
-494.678
-460.901
-466.418
-481.252
-471.324
-448.563
-435.426
-423.782
-409.048
-428.111
-419.763
-411.669
-419.283
-417.335
-411.708
-432.128
-429.312
-433.046
-434.951
-436.065
-436.396
-424.606
-425.097
-444.257
-439.597
-436.602
-441.622
-432.139
-443.857
-457.279
-459.49
-447.082
-461.758
-476.788
-476.559
-489.516
-471.302
-475.401
-496.96
-426.053
-420.79
-425.738
-421.378
-423.463
-426.868
-464.38
-468.952
-474.68
-464.613
-461.833
-472.732
-474.579
-480.844
-479.213
-483.314
-484.834
-466.01
-465.679
-447.291
-447.766
-441.185
-452.606
-447.244
-456.829
-450.733
-459.609
-468.635
-470.777
-433.374
-438.699
-436.437
-445.811
-445.881
-436.198
-432.461
-435.254
-434.579
-454.233
-447.099
-442.637
-456.812
-447.655
-456.153
-448.815
-449.726
-455.663
-449.513
-454.817
-455.377
-436.551
-411.047
-440.363
-426.097
-436.24
-425.764
-462.784
-445.838
-431.842
-410.894
-433.049
-431.42
-441.506
-442.421
-430.927
-441.502
-430.462
-429.238
-432.331
-432.362
-427.445
-428.344
-432.503
-448.031
-434.714
-439.303
-436.555
-427.614
-473.401
-470.785
-478.785
-456.467
-461.346
-467.524
-448.848
-420.115
-425.848
-418.066
-425.681
-430.01
-423.717
-419.475
-434.506
-429.917
-431.294
-439.354
-450.994
-429.919
-440.316
-444.414
-443.819
-440.67
-446.587
-449.494
-458.177
-427.524
-434.353
-430.22
-429.891
-433.91
-437.43
-441.36
-435.488
-442.996
-450.212
-434.593
-419.101
-418.918
-422.872
-423.966
-428.447
-423.373
-432.442
-438.675
-427.108
-435.197
-430.575
-430.907
-434.672
-435.422
-406.859
-405.475
-409.109
-410.45
-412.401
-416.765
-418.444
-424.162
-418.335
-409.933
-430.726
-421.135
-425.404
-421.212
-425.813
-435.967
-431.527
-431.794
-440.54
-436.539
-437.301
-432.847
-442.46
-432.727
-445.525
-429.816
-433.991
-429.836
-448.038
-423.029
-412.018
-416.85
-428.587
-422.239
-433.988
-426.354
-419.362
-425.087
-432.56
-421.661
-434.112
-425.819
-465.598
-500.795
-482.423
-487.948
-464.875
-481.613
-472.306
-486.513
-492.597
-479.596
-475.275
-470.134
-449.215
-434.056
-441.965
-456.928
-427.656
-422.705
-400.064
-404.599
-400.846
-396.873
-404.431
-410.227
-407.655
-419.876
-406.054
-397.702
-399.612
-431.667
-430.165
-426.59
-422.678
-415.613
-407.102
-417.092
-416.146
-409.603
-432.069
-428.704
-433.135
-435.594
-436.554
-436.537
-420.824
-423.126
-445.193
-441.419
-436.731
-436.758
-438.442
-438.897
-425.478
-429.693
-418.054
-446.721
-442.661
-462.651
-457.983
-476.485
-493.659
-480.186
-501.413
-420.779
-412.583
-421.628
-420.552
-412.773
-421.601
-415.669
-423.933
-421.544
-470.733
-480.096
-471.386
-462.75
-471.618
-477.855
-464.23
-463.197
-480.923
-492.41
-483.571
-497.93
-460.025
-448.34
-443.968
-447.217
-445.329
-439.789
-442.089
-438.565
-440.855
-446.319
-450.48
-446.572
-456.35
-460.029
-472.079
-477.794
-427.149
-428.257
-439.833
-429.594
-439.845
-436.009
-448.519
-448.028
-434.414
-433.842
-435.625
-436.027
-438.849
-422.247
-430.79
-428.423
-437.599
-437.004
-458.226
-448.988
-444.21
-460.9
-450.334
-455.922
-449.696
-451.205
-456.195
-452.32
-454.676
-461.977
-444.789
-466.262
-453.083
-456.168
-419.336
-425.876
-437.309
-423.708
-454.993
-439.046
-420.556
-416.955
-411.103
-427.708
-421.1
-411.975
-394.217
-404.229
-389.648
-406.304
-440.797
-432.994
-463.883
-421.067
-414.396
-424.616
-433.163
-415.709
-422.379
-419.486
-416.454
-436.934
-417.93
-434.048
-428.09
-419.988
-414.006
-412.859
-416.424
-427.571
-422.875
-454.512
-428.125
-400.979
-406.38
-394.825
-403.396
-416.897
-413.827
-391.221
-409.616
-436.941
-443.203
-430.639
-430.454
-444.399
-442.598
-428.846
-429.481
-434.884
-419.076
-419.9
-423.014
-424.66
-423.44
-437.641
-452.414
-439.053
-426.085
-424.725
-423.736
-425.988
-436.533
-431.125
-421.592
-473.685
-470.316
-484.684
-482.359
-465.654
-469.427
-481.379
-453.625
-460.621
-466.158
-440.604
-414.302
-414.729
-421.976
-419.419
-412.321
-411.252
-427.498
-421.324
-417.557
-406.96
-409.034
-413.959
-425.404
-435.342
-432.044
-431.233
-436.086
-426.936
-424.149
-429.088
-433.277
-423.611
-432.589
-435.468
-437.49
-450.224
-440.298
-444.456
-446.338
-421.043
-423.861
-426.404
-422.598
-426.047
-432.359
-428.112
-427.332
-431.545
-436.904
-452.398
-421.025
-434.593
-411.564
-416.434
-429.166
-421.56
-434.066
-421.376
-426.147
-422.329
-425.544
-429.072
-429.754
-432.89
-409.587
-396.763
-403.821
-408.702
-402.256
-409.85
-415.677
-423.992
-417.85
-413.248
-413.73
-419.786
-418.079
-451.511
-424.638
-420.67
-418.297
-410.353
-417.156
-414.521
-408.85
-404.041
-412.526
-433.181
-416.32
-423.044
-433.907
-431.065
-443.713
-429.647
-445.668
-428.515
-418.775
-419.848
-447.683
-420.165
-406.542
-410.985
-417.255
-403.101
-431.814
-420.374
-434.752
-421.288
-417.019
-421.641
-423.083
-404.835
-462.519
-494.845
-486.069
-503.802
-486.418
-491.094
-474.114
-473.248
-466.527
-497.156
-514.336
-486.329
-483.247
-500.299
-486.595
-469.329
-440.726
-448.571
-432.614
-455.66
-441.921
-457.168
-427.281
-421.896
-393.696
-400.286
-399.652
-407.999
-398.484
-389.893
-393.835
-390.798
-402.201
-416.858
-408.668
-413.006
-415.33
-422.024
-408.91
-423.654
-416.586
-411.756
-401.023
-405.045
-393.016
-402.58
-431.267
-428.198
-431.682
-429.571
-432.889
-429.987
-426.174
-422.159
-411.787
-403.187
-415.104
-415.629
-408.225
-432.114
-427.915
-432.62
-432.605
-432.217
-433.915
-434.004
-436.297
-437.273
-435.195
-435.847
-437.347
-436.333
-415.727
-413.555
-415.579
-421.119
-444.999
-441.992
-444.403
-441.74
-443.968
-442.615
-441.021
-440.012
-439.412
-437.712
-438.018
-421.494
-423.889
-418.665
-401.963
-410.285
-444.505
-441.222
-464.333
-456.245
-476.165
-505.844
-415.894
-410.797
-411.012
-402.44
-427.954
-407.745
-414.439
-429.863
-417.054
-474.738
-487.539
-478.537
-468.314
-473.798
-479.679
-462.091
-463.761
-509.379
-482.918
-498.669
-454.117
-448.038
-452.661
-441.212
-443.214
-440.775
-436.706
-440.243
-435.849
-440.965
-451.397
-444.466
-457.083
-479.434
-486.254
-413.636
-419.039
-427.443
-432.544
-425.433
-442.807
-426.71
-433.134
-427.876
-440.949
-441.428
-437.129
-437.535
-431.607
-450.763
-451.557
-442.762
-438.606
-430.565
-435.993
-431.697
-426.794
-433.958
-434.337
-431.892
-429.265
-433.775
-432.635
-435.332
-436.087
-437.423
-440.425
-424.344
-411.174
-420.441
-417.666
-412.844
-430.005
-426.465
-436.819
-437.304
-463.666
-450.988
-445.832
-476.419
-464.047
-465.076
-454.531
-451.493
-457.053
-457.014
-454.751
-456.752
-456.32
-450.235
-470.409
-451.761
-472.333
-469.323
-452.633
-451.177
-432.283
-432.223
-414.029
-404.561
-402.161
-412.398
-435.406
-399.971
-426.381
-378.441
-401.617
-373.881
-405.037
-454.262
-447.443
-463.556
-470.79
-407.838
-407.119
-427.219
-416.885
-411.07
-408.521
-420.663
-430.037
-419.741
-420.589
-408.955
-410.594
-419.569
-442.072
-419.183
-412.729
-437.769
-454.825
-457.496
-456.409
-440.972
-386.205
-397.478
-392.442
-395.128
-390.494
-415.845
-414.144
-382.406
-409.596
-439.603
-447.679
-445.579
-432.242
-433.807
-431.17
-446.262
-435.93
-452.722
-421.073
-411.843
-416.527
-424.046
-423.889
-434.763
-429.14
-445.272
-456.359
-441.244
-436.351
-421.561
-411.426
-416.951
-412.896
-433.554
-423.596
-421.616
-466.446
-481.7
-483.691
-470.641
-469.533
-491.507
-487.523
-467.561
-473.684
-446.874
-456.739
-463.317
-427.922
-409.143
-407.409
-417.538
-410.385
-416.102
-403.024
-407.795
-422.6
-428.225
-421.41
-427.67
-414.212
-424.028
-420.255
-407.526
-398.701
-408.142
-402.713
-452.065
-434.103
-428.382
-423.817
-429.629
-421.472
-424.511
-421.838
-435.391
-431.828
-433.714
-442.504
-440.248
-458.989
-442.263
-460.834
-466.023
-441.186
-412.424
-418.721
-421.14
-419.482
-420.076
-418.363
-424.348
-418.726
-423.328
-430.616
-426.422
-424.154
-451.233
-472.835
-452.097
-407.814
-418.447
-405.128
-417.125
-430.216
-401.539
-412.749
-430.714
-420.457
-422.356
-423.844
-420.894
-436.106
-416.808
-423.857
-418.625
-422.44
-388.014
-390.677
-398.792
-402.245
-396.223
-419.712
-427.801
-417.938
-414.973
-419.81
-423.429
-416.113
-409.053
-435.468
-407.647
-434.012
-488.189
-460.258
-460.811
-443.989
-437.522
-462.304
-460.655
-414.233
-413.636
-409.325
-396.711
-404.34
-408.349
-402.056
-435.185
-408.074
-419.35
-437.735
-417.555
-445.527
-422.09
-409.291
-412.528
-428.45
-410.723
-387.797
-415.084
-395.923
-401.84
-418.573
-413.921
-397.466
-432.304
-426.359
-413.307
-406.299
-391.661
-516.81
-480.18
-493.845
-515.287
-474.193
-473.906
-494.032
-472.708
-464.948
-522.773
-490.958
-534.502
-496.701
-496.297
-488.993
-493.768
-467.263
-490.262
-439.36
-438.652
-430.837
-446.901
-454.805
-438.399
-455.213
-450.277
-427.03
-421.072
-389.539
-391.066
-396.152
-406.287
-395.004
-398.803
-384.071
-380.63
-384.077
-393.659
-389.903
-401.62
-415.874
-408.652
-429.833
-405.765
-413.629
-416.744
-421.174
-423.556
-397.582
-420.17
-425.828
-418.421
-415.759
-416.982
-411.987
-432.394
-408.315
-399.158
-384.792
-414.956
-402.505
-420.191
-430.999
-427.829
-431.298
-432.194
-428.977
-431.004
-429.374
-430.247
-428.304
-425.458
-423.976
-427.424
-426.161
-421.995
-408.719
-400.347
-413.297
-415.254
-407.303
-433.781
-429.656
-431.168
-432.518
-434.196
-432.184
-426.666
-429.256
-432.288
-432.597
-432.595
-433.452
-432.425
-432.938
-434.158
-436.882
-437.805
-435.562
-436.188
-438.914
-438.788
-436.26
-435.859
-435.391
-438.902
-435.577
-411.044
-402.943
-410.449
-405.767
-409.776
-419.273
-443.651
-441.972
-444.378
-441.507
-444.043
-441.298
-443.242
-441.26
-440.215
-439.198
-440.124
-417.826
-411.324
-414.084
-397.48
-396.381
-399.753
-383.674
-442.633
-459.702
-413.548
-418.639
-397.229
-392.566
-440.045
-404.202
-420.87
-441.053
-480.329
-495.529
-487.798
-476.906
-479.92
-457.987
-518.856
-479.69
-444.399
-442.018
-444.039
-432.587
-431.36
-439.717
-436.383
-435.914
-433.26
-457.004
-501.462
-410.777
-396.3
-408.62
-417.531
-417.585
-425.689
-443.759
-427.427
-428.628
-435.518
-434.377
-429.69
-421.526
-433.486
-426.155
-443.793
-440.427
-444.243
-441.566
-438.576
-432.92
-453.001
-445.066
-445.361
-445.093
-452.21
-441.092
-444.111
-439.93
-429.999
-434.48
-437.66
-436.816
-439.424
-422.78
-432.973
-432.982
-425.037
-425.524
-428.09
-424.879
-434.279
-434.364
-431.702
-431.839
-433.556
-432.499
-430.976
-418.216
-431.029
-428.16
-422.491
-427.055
-433.898
-432.41
-436.274
-436.9
-437.779
-437.762
-439.077
-439.795
-441.473
-440.211
-443.388
-441.511
-423.131
-405.91
-410.625
-405.751
-399.1
-402.287
-418.119
-416.275
-410.539
-429.342
-424.375
-435.193
-437.479
-468.358
-486.28
-481.869
-452.146
-443.044
-463.351
-446.789
-442.123
-444.273
-478.743
-464.024
-481.613
-467.741
-465.83
-456.922
-457.132
-454.117
-460.887
-458.512
-457.407
-458.852
-443.766
-449.291
-472.979
-452.725
-471.984
-474.933
-459.548
-443.329
-422.308
-418.156
-399.148
-391.828
-425.756
-397.009
-403.881
-436.073
-447.418
-424.392
-383.49
-441.441
-385.793
-403.433
-379.035
-407.992
-457.517
-465.451
-390.098
-398.637
-421.575
-405.209
-409.806
-400.765
-391.252
-398.351
-415.43
-419.233
-404.086
-408.305
-427.814
-418.607
-421.495
-410.503
-410.797
-411.355
-395.285
-416.18
-437.392
-434.851
-409.343
-404.979
-431.558
-452.429
-448.604
-448.616
-455.16
-369.366
-380.811
-372.047
-392.325
-390.564
-416.136
-415.142
-383.838
-413.524
-437.502
-448.532
-414.946
-414.372
-434.63
-447.687
-433.406
-448.931
-432.409
-453.472
-434.349
-451.377
-472.938
-404.709
-416.192
-409.587
-415.153
-402.142
-412.321
-426.524
-414.226
-442.475
-422.89
-417.242
-453.174
-431.633
-452.633
-445.75
-457.933
-438.027
-435.238
-426.057
-417.961
-422.261
-414.509
-407.062
-393.465
-394.448
-403.563
-412.85
-395.495
-427.756
-420.107
-419.028
-415.175
-412.644
-437.889
-437.919
-436.68
-439.742
-413.368
-419.799
-461.869
-471.642
-487.015
-490.771
-476.149
-474.131
-468.031
-478.621
-436.349
-449.491
-470.352
-446.716
-469.887
-445.951
-408.86
-403.398
-425.43
-421.9
-405.059
-401.292
-413.292
-403.026
-411.076
-425.009
-416.851
-420.261
-424.453
-411.014
-420.836
-396.886
-401.764
-410.98
-417.909
-424.181
-420.282
-406.459
-420.605
-415.281
-417.836
-394.627
-390.801
-446.89
-408.161
-397.315
-396.652
-390.83
-393.728
-396.429
-396.096
-458.316
-462.105
-487.848
-432.483
-424.402
-419.136
-428.848
-416.723
-419.478
-426.613
-421.501
-419.336
-439.702
-433.997
-425.079
-428.607
-429.476
-433.259
-466.235
-441.045
-470.908
-442.517
-399.523
-418.117
-403.721
-414.037
-420.605
-413.386
-410.683
-423.002
-413.891
-419.255
-486.05
-444.846
-482.725
-474.423
-453.26
-457.718
-442.694
-439.78
-395.682
-409.508
-391.837
-410.576
-428.217
-440.954
-441.414
-380.701
-397.878
-418.084
-416.774
-402.201
-434.065
-417.922
-421.667
-423.73
-417.217
-438.352
-414.32
-381.974
-388.597
-372.125
-402.871
-388.597
-410.288
-388.651
-419.448
-394.731
-390.942
-399.47
-385.253
-417.718
-422.472
-422.372
-421.707
-421.468
-434.951
-418.542
-407.942
-411.779
-436.483
-425.97
-396.185
-428.46
-394.614
-426.465
-487.398
-492.876
-502.608
-480.004
-494.946
-506.842
-491.142
-515.977
-512.708
-456.57
-454.943
-460.4
-462.299
-462.495
-409.45
-415.774
-390.9
-398.258
-386.539
-394.894
-390.932
-411.68
-400.125
-430.946
-413.154
-419.1
-407.223
-412.475
-434.333
-393.878
-380.602
-413.945
-397.355
-395.924
-416.764
-398.888
-376.873
-412.312
-422.09
-405.327
-395.169
-492.437
-459.448
-521.022
-471.08
-485.924
-527.979
-467.787
-461.085
-523.794
-549.019
-501.748
-488.574
-519.342
-466.426
-459.743
-489.082
-483.97
-487.544
-508.454
-476.27
-437.349
-442.1
-429.408
-442.633
-445.274
-444.998
-434.483
-446.158
-455.459
-426.335
-426.81
-424.207
-428.775
-428.117
-430.139
-426.389
-423.777
-419.908
-388.869
-383.683
-394.562
-406.791
-390.003
-374.468
-400.707
-382.778
-367.225
-387.635
-382.004
-375.451
-395.572
-406.122
-401.944
-416.043
-409.138
-400.713
-388.773
-407.319
-410.921
-415.352
-409.424
-415.838
-414.092
-419.731
-422.924
-422.969
-418.214
-421.319
-392.76
-388.484
-380.085
-378.325
-431.532
-415.87
-419.568
-425.225
-433.801
-417.39
-412.542
-406.746
-397.636
-388.696
-399.698
-382.873
-392.697
-369.16
-376.2
-377.071
-384.342
-358.374
-451.216
-394.26
-380.848
-447.357
-459.337
-431.492
-429.999
-431.726
-430.361
-427.051
-426.373
-428.3
-428.764
-431.327
-432.461
-428.746
-430.896
-429.147
-425.157
-423.773
-427.235
-425.993
-418.999
-421.574
-424.07
-421.578
-405.099
-398.526
-411.697
-418.608
-421.158
-414.441
-406.423
-434.315
-433.489
-432.151
-430.873
-428.684
-428.051
-431.769
-431.052
-425.173
-432.605
-432.498
-433.716
-432.227
-432.475
-433.191
-434.382
-437.714
-438.328
-436.076
-436.389
-438.959
-436.221
-433.864
-438.675
-438.194
-435.183
-434.797
-408.147
-398.717
-397.37
-401.319
-396.758
-399.612
-417.852
-441.796
-441.291
-441.28
-443.309
-440.866
-442.756
-440.743
-442.349
-417.999
-405.794
-405.636
-396.491
-395.964
-390.834
-393.365
-380.513
-379.903
-388.406
-413.509
-408.329
-433.677
-380.279
-387.909
-412.143
-434.462
-455.962
-503.545
-497.866
-477.502
-448.631
-524.621
-472.155
-430.775
-431.029
-423.241
-424.596
-449.682
-437.084
-444.399
-511.267
-409.146
-389.809
-403.247
-416.81
-418.434
-427.039
-442.662
-427.76
-428.795
-435.996
-435.768
-420.563
-428.518
-431.315
-423.064
-435.214
-427.652
-441.848
-442.845
-440.281
-434.598
-447.066
-453.384
-446.215
-446.925
-446.343
-445.461
-441.729
-451.618
-445.182
-441.564
-441.283
-436.079
-431.32
-427.784
-434.11
-431.226
-435.91
-439.328
-438.057
-440.908
-422.284
-415.441
-429.993
-433.84
-432.965
-439.62
-423.971
-424.583
-424.441
-420.083
-422.817
-426.587
-425.558
-436.433
-434.975
-435.709
-434.788
-433.637
-432.454
-424.577
-432.207
-429.265
-430.25
-432.665
-433.959
-432.838
-431.787
-399.533
-409.437
-414.714
-406.226
-415.798
-421.953
-406.821
-415.124
-430.747
-427.525
-421.917
-426.717
-433.626
-432.773
-434.984
-434.58
-430.326
-431.746
-433.006
-433.902
-437.189
-437.996
-436.175
-436.377
-438.902
-438.521
-436.177
-436.365
-438.522
-438.758
-440.007
-440.975
-440.956
-442.496
-422.231
-432.932
-425.095
-429.465
-419.705
-402.344
-390.054
-394.539
-388.009
-393.903
-393.338
-408.754
-403.189
-395.633
-399.407
-415.978
-415.621
-408.979
-428.558
-430.138
-433.057
-422.193
-433.356
-437.22
-439.259
-436.254
-496.93
-492.197
-491.74
-487.874
-469.381
-439.362
-450.784
-464.947
-442.258
-466.411
-442.73
-446.406
-445.302
-442.604
-444.892
-484.551
-476.667
-487.478
-469.659
-475.699
-467.868
-450.87
-458.544
-462.709
-457.089
-459.177
-464.023
-468.148
-460.483
-448.413
-479.704
-457.451
-472.492
-434.726
-424.241
-445.153
-409.376
-400.471
-388.845
-394.089
-418.775
-444.028
-397.564
-440.005
-442.245
-422.622
-440.295
-376.961
-393.922
-382.271
-456.377
-461.705
-374.602
-401.362
-399.24
-396.613
-374.444
-381.318
-395.227
-406.672
-400.532
-412.494
-411.999
-428.505
-424.414
-440.305
-424.817
-419.523
-425.441
-415.719
-405.504
-413.83
-396.128
-396.065
-405.559
-399.009
-406.807
-447.191
-430.136
-399.566
-429.242
-396.087
-448.472
-450.768
-439.033
-436.767
-372.358
-364.605
-371.874
-392.265
-389.538
-416.749
-382.904
-412.938
-446.668
-446.548
-433.214
-448.046
-436.807
-448.741
-417.62
-432.459
-444.762
-430.12
-474.497
-451.989
-429.676
-486.202
-444.191
-482.685
-391.35
-409.457
-382.633
-398.192
-414.789
-404.239
-432.569
-418.36
-408.503
-413.276
-404.947
-406.431
-409.526
-401.269
-403.24
-446.844
-438.332
-465.371
-460.597
-459.066
-419.858
-446.578
-441.619
-450.527
-457.588
-438.057
-434.328
-427.599
-418.759
-423.337
-414.334
-404.254
-382.704
-383.565
-400.938
-416.58
-394.889
-394.535
-379.024
-379.184
-397.759
-393.957
-397.23
-390.097
-421.94
-421.834
-420.384
-419.857
-419.654
-409.387
-421.881
-464.316
-436.29
-461.651
-456.276
-464.079
-476.602
-471.112
-483.592
-481.479
-465.59
-483.01
-416.081
-429.768
-420.671
-436.248
-434.083
-426.19
-458.658
-445.764
-459.274
-439.398
-450.526
-462.955
-439.603
-416.321
-410.859
-401.81
-397.35
-409.569
-402.708
-391.628
-401.358
-387.473
-411.877
-395.377
-445.191
-442.898
-385.561
-420.369
-431.277
-390.528
-394.799
-384.8
-399.031
-405.936
-410.848
-416.195
-394.794
-420.715
-398.848
-407.271
-405.587
-414.56
-397.329
-416.579
-417.824
-422.403
-378.642
-385.006
-416.744
-463.444
-463.37
-502.332
-415.418
-463.577
-463.282
-488.448
-491.549
-505.173
-398.134
-386.536
-383.392
-383.449
-386.103
-382.067
-391.517
-483.73
-490.014
-502.834
-496.137
-507.525
-511.562
-515.123
-433.078
-422.706
-414.007
-419.996
-414.246
-410.821
-424.046
-433.963
-414.481
-444.323
-418.214
-418.651
-408.793
-417.345
-423.876
-432.037
-474.277
-434.896
-474.09
-421.542
-404.841
-422.5
-401.75
-488.064
-500.236
-487.387
-510.995
-510.411
-501.439
-501.527
-418.669
-423.144
-463.692
-466.044
-477.441
-471.473
-484.294
-471.393
-475.053
-485.983
-478.657
-450.566
-455.407
-457.817
-383.921
-398.384
-381.374
-401.987
-432.138
-431.872
-435.032
-438.712
-436.969
-359.17
-367.992
-356.724
-368.186
-400.392
-420.508
-438.417
-423.065
-432.39
-411.343
-380.779
-381.563
-357.735
-348.297
-357.346
-384.15
-425.24
-409.146
-385.521
-391.028
-397.207
-377.73
-381.702
-387.574
-416.172
-422.57
-436.901
-426.236
-422.864
-416.172
-422.455
-401.216
-396.244
-405.875
-400.855
-393.274
-403.898
-395.719
-398.035
-405.151
-414.245
-416.259
-381.815
-413.181
-379.848
-496.537
-491.58
-503.88
-499.43
-489.506
-510.714
-500.985
-513.944
-522.055
-524.679
-521.211
-519.684
-482.294
-498.984
-513.483
-521.59
-502.132
-531.751
-527.881
-456.521
-459.571
-438.921
-439.574
-460.166
-454.534
-424.371
-437.095
-459.959
-461.536
-386.062
-385.621
-398.014
-376.572
-379.088
-388.376
-388.949
-382.991
-375.462
-431.12
-414.275
-436.299
-377.272
-399.144
-400.08
-379.375
-396.877
-378.394
-392.068
-406.22
-384.544
-427.37
-372.567
-415.965
-485.435
-449.174
-507.699
-475.513
-503.886
-449.206
-454.015
-514.361
-448.517
-459.12
-542.136
-510.759
-547.506
-488.178
-462.181
-458.344
-464.802
-478.576
-467.559
-480.067
-506.502
-504.429
-504.307
-533.157
-481.143
-461.457
-443.647
-425.213
-442.762
-434.3
-415.246
-427.226
-419.671
-443.69
-455.246
-430.819
-446.264
-427.913
-425.966
-430.021
-428.366
-425.818
-423.192
-425.143
-422.564
-418.82
-381.21
-390.819
-394.469
-389.284
-402.964
-408.478
-406.846
-411.828
-409.463
-414.331
-362.339
-358.185
-354.304
-355.471
-350.066
-386.804
-403.133
-400.721
-408.525
-357.225
-365.406
-443.348
-357.192
-351.827
-385.81
-363.872
-382.907
-395.962
-456.222
-401.843
-412.785
-416.097
-419.059
-415.971
-421.218
-418.172
-412.576
-408.739
-415.813
-404.043
-376.355
-403.831
-402.157
-394.181
-391.647
-362.515
-390.108
-355.913
-370.545
-363.151
-410.634
-411.407
-413.292
-417.672
-416.55
-415.703
-419.594
-420.627
-421.482
-424.733
-423.896
-422.675
-371.618
-359.501
-431.259
-432.235
-414.271
-410.685
-419.28
-424.936
-447.246
-442.955
-425.283
-419.556
-387.712
-373.626
-364.133
-378.96
-353.108
-369.031
-336.199
-344.427
-350.776
-359.546
-333.968
-357.695
-387.678
-350.063
-393.053
-446.871
-503.028
-441.557
-412.478
-403.639
-435.158
-515.673
-432.773
-507.864
-431.387
-429.974
-431.626
-430.351
-426.975
-426.311
-428.301
-428.82
-431.213
-428.602
-432.336
-430.513
-428.55
-424.409
-423.602
-426.552
-425.824
-421.227
-423.644
-402.312
-397.288
-410.71
-418.094
-420.623
-417.483
-420.019
-413.594
-405.815
-434.122
-433.05
-431.828
-430.354
-429.27
-429.657
-432.461
-432.528
-433.653
-432.541
-432.438
-433.33
-438.682
-436.428
-438.767
-435.888
-435.721
-438.201
-435.314
-393.439
-406.634
-393.808
-390.754
-411.158
-441.04
-439.645
-440.283
-438.012
-438.93
-439.011
-440.764
-442.488
-440.088
-441.45
-397.076
-420.051
-386.673
-390.266
-389.045
-383.934
-384.405
-384.544
-413.494
-400.13
-429.339
-361.906
-383.757
-429.623
-451.294
-517.273
-515.093
-534.168
-414.397
-437.554
-446.642
-428.453
-456.752
-536.163
-405.568
-382.628
-408.887
-420.581
-444.326
-429.621
-427.438
-435.464
-435.175
-419.517
-420.673
-429.044
-428.94
-411.799
-422.643
-431.633
-423.701
-438.454
-431.027
-443.324
-444.075
-447.343
-444.489
-451.929
-447.008
-447.061
-446.694
-444.903
-442.27
-440.8
-450.015
-443.517
-444.457
-440.142
-440.651
-441.763
-436.542
-436.217
-433.338
-432.648
-429.026
-435.264
-432.167
-435.859
-442.068
-437.836
-443.043
-412.071
-410.906
-429.152
-433.014
-432.465
-438.042
-435.887
-431.261
-436.45
-447.752
-428.424
-432.818
-427.297
-412.042
-420.594
-418.341
-418.616
-423.346
-427.968
-427.207
-436.267
-437.015
-435.754
-435.247
-434.995
-436.615
-435.301
-434.494
-432.46
-413.387
-413.322
-417.911
-416.273
-425.155
-426.563
-419.194
-420.191
-432.211
-429.221
-430.019
-433.65
-433.888
-433.862
-434.905
-434.523
-433.816
-432.761
-394.075
-392.256
-404.136
-402.732
-415.044
-421.554
-404.992
-414.105
-432.109
-430.828
-430.36
-428.769
-427.463
-424.722
-429.321
-426.946
-421.808
-419.068
-421.7
-424.365
-426.397
-424.129
-428.453
-426.546
-433.731
-432.695