/*--------------------------------*- C++ -*----------------------------------*\
  =========                 |
  \\      /  F ield         | OpenFOAM: The Open Source CFD Toolbox
   \\    /   O peration     | Website:  https://openfoam.org
    \\  /    A nd           | Version:  12
     \\/     M anipulation  |
\*---------------------------------------------------------------------------*/
FoamFile
{
    format      ascii;
    class       surfaceScalarField;
    location    "0";
    object      phi;
}
// * * * * * * * * * * * * * * * * * * * * * * * * * * * * * * * * * * * * * //

dimensions      [0 3 -1 0 0 0 0];

internalField   nonuniform List<scalar> 
238165
(
0.0175514
-0.00105874
0.00197569
-0.0184683
0.00974075
-0.00122477
-0.00293294
0.00558378
0.00638454
0.0376532
-0.000371708
-0.00125798
0.000118688
-0.0372009
-1.90526e-05
0.000635337
-0.000778619
0.00999038
-8.73045e-05
0.00735657
0.00750301
-0.000245725
-0.00200849
0.000611821
0.000526381
0.000511341
-0.000193867
0.00811226
0.00905521
-0.0324533
0.035091
-3.94883e-05
0.00143684
-0.00176813
-0.000288972
0.00585369
-0.00190483
0.00122327
0.00770146
0.032283
-9.2576e-05
-0.000930487
-0.0316317
0.0316195
2.78602e-05
-6.6455e-05
-0.00143516
-0.0314037
0.0302624
-0.00169128
4.11072e-05
-0.0302612
0.00176763
0.000934718
0.000950923
-0.0031227
-0.000507121
0.000290399
0.000440874
0.00130881
0.000232969
0.00794193
0.00802754
0.00816399
0.00774516
0.000709593
-0.000138602
0.0106078
-0.000253649
-8.5783e-05
0.000354675
-0.000836221
0.00783659
0.000415563
-0.000467031
-0.00017622
0.00764492
0.0315789
-0.000387319
-0.0022429
0.000853546
0.000584397
0.000590598
0.000280446
-0.0315034
0.0306705
-0.000394996
-0.00206112
0.00031572
-0.00579785
0.00609394
-0.0100198
3.96011e-05
0.0103056
0.000516688
-0.000159326
-4.58302e-05
0.000591043
-0.00989439
-0.00615103
0.00012416
-0.000370772
0.000504814
0.00826961
-4.43654e-05
0.00928943
0.00934271
0.00817157
0.00840836
0.00965198
-3.89836e-05
-0.00181579
0.0318919
-0.00020151
0.000211941
-0.00205102
-0.000162599
0.00672588
-0.00266831
0.00389158
0.000179005
0.00833476
0.0304099
-0.00067974
-0.0306324
0.000809608
0.0325394
-1.99177e-06
-0.00133771
-0.0321024
0.0307837
-0.00181698
5.55074e-05
-0.03078
0.0311657
4.99342e-05
-0.000242363
-0.00112793
-0.0312805
0.0305201
-0.00144055
-0.000334597
0.00201707
-0.030721
0.0316439
0.000592502
-0.000581656
-0.00288556
0.000738823
0.00104763
-0.0028283
0.0308169
-0.000914985
-0.00130774
-0.0100453
0.00109816
0.0109838
-0.000438551
-0.00815459
-0.00152347
0.00014011
0.00867106
-0.000979498
-0.00108256
-1.54249e-05
-0.000714126
0.000396218
-0.00102249
0.00115046
-0.000454632
0.00787237
-0.00146126
0.00143259
0.000262095
0.00819032
-0.000261532
-0.00136281
0.000270374
0.00805669
-0.000844549
-0.000248176
0.00755386
0.000697102
0.00026632
0.011304
-0.000509189
-0.00039632
0.00078645
0.00793162
0.000502399
0.000373568
-0.00237521
0.0312735
-0.00114812
0.000609308
0.000280993
0.000625372
0.000890081
0.000783362
0.00801527
0.0306174
-0.000355826
0.00230422
-0.0020712
-0.030882
0.0305898
-0.00235213
-0.000355393
0.000116151
-0.00777661
0.00821044
-0.000279268
0.000582831
-0.00811472
0.00826449
0.000590373
-5.08222e-05
0.00059418
-0.00811331
5.13961e-05
0.0005842
-0.00818258
-0.00181732
0.0308563
-0.000517976
2.62149e-05
0.00602335
-0.000305436
0.010673
0.00046911
-0.00721803
-2.94642e-06
0.00740911
0.000328546
0.000100051
0.000393275
-0.00712031
0.000425156
0.00069534
0.00830604
0.000558164
0.00978027
0.000598283
-0.000953664
0.00877381
-2.54956e-05
0.0091928
-2.50976e-05
0.00837892
0.00943337
-0.00222263
-0.00220308
0.00839732
0.00858704
0.0331605
-3.8249e-05
-0.00218666
-0.000192724
0.0313193
0.000201254
-0.00221318
-0.000265086
0.00768806
0.00516875
0.000413043
0.00962062
0.0329643
-0.0012693
-0.032374
-2.82054e-06
0.0317837
4.47746e-07
-0.00142596
-0.031646
0.000444137
-0.000349559
0.00306142
0.00078056
-0.00566902
0.121248
-0.00132238
-0.122262
0.0298011
0.000217824
-0.0309598
0.0302111
-8.15795e-05
-0.00013283
-0.0314741
0.00133949
0.00139771
0.0308469
0.000784397
-0.000961069
-0.00397082
0.0011507
0.0329634
-3.48883e-05
-0.00351754
-0.002665
0.0306995
-0.000588102
-0.000575227
0.0308635
0.000324848
-0.00217936
0.000442682
0.000487279
0.00102082
0.000579534
-0.00352469
-0.00161025
0.00130584
0.0302859
0.00112703
-0.00201207
0.0302522
-0.000940584
-0.00181714
0.00195323
0.0118941
-0.000784325
-0.00117947
0.0099514
-1.76903e-05
0.00888755
-2.40144e-06
-0.00159371
0.000196177
0.00852183
0.000608075
-0.00157157
0.00178451
0.00749403
-0.0019159
0.00231905
0.000382897
0.00801233
-0.000473247
0.000331511
0.00762202
0.00739404
0.0042655
0.00179778
-0.000720676
0.00774586
-0.000485417
0.000973957
0.0079547
0.000381503
0.000636248
-0.00257544
0.000733626
0.0304189
-0.00162055
0.000802443
0.00072598
0.000722794
0.000326362
0.000721634
-0.00196427
0.0302634
0.00196945
-0.00079925
-0.00830731
-0.000452897
0.000466023
0.00823531
0.000668181
0.000296199
0.0077954
-0.0001397
0.000539541
0.000573307
0.00811268
-0.000484669
0.000604572
0.000801724
0.00768917
0.0299965
-0.000365928
0.00249064
-0.00212652
-0.0303505
0.000155817
3.22947e-05
0.0311193
-0.000178545
0.0023038
-0.0313563
0.0309318
-0.000939342
0.000123486
-0.00797242
0.00808637
0.000501202
-0.00816005
0.00826681
0.000604158
-4.27905e-06
0.000643817
-0.00810536
0.000674532
-0.00803474
-0.000219224
0.00680074
0.000584549
0.0110306
-0.000175299
0.00777129
0.000282223
-0.004183
0.00022095
0.00429059
0.000320091
-0.00410982
0.000656335
0.00817976
0.00090791
0.000457115
0.0106884
0.000645675
-0.000134272
-0.000963592
0.00880561
0.00079797
0.00925597
0.00787975
0.0114759
0.00774144
0.00819076
0.000465405
-0.00225113
2.26111e-05
0.000628663
0.000526586
-0.000272347
-0.0366303
0.0332721
-0.000268916
-0.00228021
0.00114459
-0.00110297
-0.000237915
0.00845935
-0.00162096
0.00212351
0.010027
0.0318348
-1.41762e-05
-0.00202225
-0.00282889
0.0313028
0.000304571
-0.00221456
0.00358414
0.00158982
0.00899414
0.00753501
0.00392675
-0.00113566
0.0109463
0.0319459
-3.72211e-05
-0.00140906
-0.0317685
-0.00148616
0.0310517
4.84048e-06
-0.0310779
0.000608721
-0.00104484
-0.00429174
0.120052
-0.120993
0.0026211
0.000537016
0.00094329
-9.17614e-05
-0.00719546
-0.00228689
0.118862
0.00107008
0.00354831
-0.00492659
0.11951
-0.00167878
-0.121149
0.00692135
0.00163679
-0.00463778
0.121019
2.83529e-07
-0.121857
0.00649534
0.00081957
0.0293719
-0.00126996
-0.00456997
0.00169765
0.00187631
0.0313582
-3.2205e-06
0.00207123
-0.00484609
-0.00129217
0.030127
-0.0033932
0.0303293
0.000493507
0.00118848
0.00120453
0.0329246
-0.000539132
-0.00360784
0.0314299
-1.22085e-05
-0.00277561
-0.000242103
0.029517
0.0298036
-0.000851691
7.97061e-05
-0.00099018
-0.00288803
0.0299447
0.000788661
0.00116013
0.00777985
0.00227176
-0.0039009
-0.0019092
0.000780931
0.0293307
0.00127216
0.00123209
0.00120832
0.00151668
0.00763303
0.00181013
0.00179309
-0.00664978
0.00143116
-0.00195457
0.00177161
0.117478
-0.119817
-0.00240142
0.00518773
0.00116428
0.00832641
-0.00198719
0.0111507
3.57209e-06
-0.00116956
0.000365103
0.0100427
0.00879357
6.2051e-07
-7.46438e-05
0.00889677
0.00022789
0.00810033
0.00189512
0.00248741
0.000477304
0.000258091
0.0290761
0.00193068
0.00233414
0.000409515
0.000421117
0.00222929
0.000922809
-0.000836376
0.00732525
-0.00273355
0.000537264
0.000710946
0.00306938
0.0293581
-0.00202167
0.000794882
0.000703486
-0.0010834
0.029745
0.00179136
0.000786825
-0.00755185
0.00741995
-0.00059685
0.000744377
-0.00804361
0.00746599
0.00112292
0.000967506
-0.000633257
0.000811627
0.000736113
-0.000348386
0.000602323
0.00108839
0.00779337
0.00117975
0.000252723
0.00041136
0.0307172
-0.00070208
0.00178516
0.0295456
0.00189449
-0.00044973
-0.00838247
-0.000528052
0.000563264
0.00837937
0.000636075
0.000264917
0.0080273
0.000586416
0.000547257
0.00804253
0.000472644
0.0296215
0.00299012
-0.000326117
-0.00273652
-0.0299149
0.02997
-4.06513e-06
0.00273268
-0.0303865
0.000110266
-3.28549e-05
0.0309797
0.0004122
0.00169685
3.56426e-05
-0.000102295
-0.0307958
5.57454e-05
-0.00798431
0.00807263
0.000467397
-0.00971639
0.00974694
0.000850299
2.00985e-05
0.000834247
-0.00960684
0.000679204
-0.00800173
-0.000450648
0.00770849
0.000402956
0.00851615
0.0116583
0.000641122
1.56138e-05
0.0045572
0.00351792
0.00756094
0.000120194
-0.000726079
0.000853323
-0.000305114
0.00793743
-0.00102696
0.00283374
0.00816839
0.00011327
-0.000688105
-0.000139505
0.00772971
-0.00113904
0.00817819
-0.000515697
-0.00878538
0.00926672
2.96006e-05
0.000470156
0.0323283
-0.0022216
-0.000196085
-0.0324306
0.0311228
0.000546266
-0.00229856
-0.000394028
0.000855447
0.000562698
0.000199779
-0.0305718
-0.00573245
0.0058454
-2.59322e-05
2.80653e-05
0.000334757
-0.00859568
-0.0060307
0.0319221
-0.000219089
-0.00205152
0.00130353
-0.000189222
0.00847493
-0.0015384
0.00366191
-0.000277261
0.0011552
0.0108177
0.0309789
-8.10608e-06
-0.0020424
0.00562656
0.00551657
-0.00109979
0.00357749
0.00173381
0.00701191
0.00186826
0.00971882
0.00737163
0.00558836
0.00139656
0.0314838
-0.000219216
-0.00110523
-0.0315161
0.00131948
-0.00147976
0.0311077
8.98434e-05
-0.0311221
-0.00126664
-0.00363583
0.11919
-0.120259
0.000479678
-0.000778769
-0.00334983
0.119325
-0.119968
0.00102279
-0.00149282
-0.00513072
0.118457
-0.00530662
-0.00182455
0.117705
0.00312584
0.000769648
-0.00756531
-0.0029231
0.115992
0.00360216
0.00129771
0.00295387
7.14143e-05
0.000922513
0.000615549
-0.00348077
0.0304714
0.000489879
0.0303163
-0.00359154
0.119765
2.88471e-06
-0.120335
0.00233483
0.0024168
-0.00593345
0.118898
-7.04271e-06
0.00165164
0.000123688
-0.0046452
0.121099
0.00286121
-0.000604709
-0.121965
0.00163532
0.00206902
0.029703
-1.41728e-06
0.00215447
0.00196972
-0.00535231
0.00571236
-0.00123018
-0.00470968
0.000919375
0.02868
-0.00122545
0.0293074
-0.00309975
0.029099
0.000529799
0.00170781
0.0015963
0.0313377
-0.000795902
0.00206957
-0.0048747
0.00188063
0.00306213
0.00802667
3.87773e-06
-0.00346547
0.030547
-4.26748e-06
0.00132381
0.00106012
0.0315517
-0.000722622
-0.00325106
0.0314448
-0.000327362
-0.00281533
0.0306211
-3.21834e-06
-0.00138159
-0.00241389
0.0290974
0.000791996
0.00718224
0.00112381
0.00203115
-0.00388316
-0.00197612
0.00470888
0.0284499
0.00731031
0.0015505
-0.00085853
0.000825075
0.00698511
0.00159074
0.00128047
0.00696252
0.00163195
-0.00609486
0.115874
0.00143258
-0.00172547
0.00139801
0.00165225
-0.0289664
-0.0298678
-0.0282552
-0.0290337
-0.000618447
0.00158658
0.0292656
0.00170587
-0.00601425
0.00167113
0.000629538
0.0013113
-0.00288414
0.00150325
0.115093
0.00162796
0.00145235
0.00714932
1.20031e-05
0.00821576
-0.00251224
0.00739959
0.00359501
0.000321342
-0.00197998
0.000745666
0.0112806
-0.000177064
0.00880228
0.00728923
0.000192264
0.00178767
0.00153578
0.0282178
0.00143639
0.00186024
0.00198174
0.000753324
0.00203742
0.00729027
0.00705834
0.000587554
0.0028132
-0.00252995
0.00694173
0.0030711
0.000326213
0.000275182
0.00697425
-0.00753093
-0.00766803
0.00223464
0.00111474
0.0292429
0.00125986
0.00113011
0.00103735
-0.00286535
-0.00272284
0.00291278
-0.00199034
0.0025973
0.0285612
-0.00140326
0.029154
0.0016784
0.00737095
0.00105623
0.00128488
0.00708878
0.00103636
0.00122977
0.000593037
0.000537168
-0.00130179
0.0300978
0.00163711
0.000970668
-0.00779855
0.000634359
0.00319119
0.0080247
0.00274511
-0.0081593
0.00156212
0.000867314
-0.000724592
0.000949542
0.00073123
0.000658881
0.0296448
-0.000255376
0.00177296
0.000227162
0.000471315
0.0308437
-0.000550911
0.000510228
0.000140449
0.00112299
0.0290713
-0.00031901
0.00205143
-0.0100037
-0.000576825
0.000401902
0.0105002
0.00031452
0.000249386
0.00806752
0.000569299
0.000555474
0.00809418
0.000340476
0.0291772
0.00095383
0.000822251
0.000675051
0.00110853
6.92341e-06
6.60028e-05
-0.000147309
6.0551e-05
-0.029737
0.0294993
0.0005038
0.000881757
-0.00038894
0.000858351
0.000479082
-0.00232793
-0.0298316
0.0296227
0.000178982
-7.13397e-05
0.00187716
0.000141046
7.65664e-05
-0.00716049
-0.00705243
-0.00733126
-0.00713604
0.0301366
0.000603187
-0.000144951
-0.000309069
-0.000218199
-8.07209e-05
-0.000196573
-0.0069861
-0.00681543
-0.00722212
-0.00706984
-0.00755321
-0.000115452
0.00761202
0.000559674
-3.41498e-05
0.000544127
-0.00748628
-0.00745108
0.00698393
0.00120199
0.00075067
-0.00740166
0.00279299
0.00958219
0.00536206
0.00916885
0.000937961
0.0072908
0.00177708
-9.67491e-06
-0.000184012
0.00038471
0.00992902
0.000247143
0.00040442
-0.00296389
0.000808009
0.0310628
-0.000937871
0.00070764
0.000348974
0.0010009
0.000288893
-0.00110376
0.000971552
0.00802788
0.00713106
-0.00118981
0.00124782
0.00812202
0.000277498
0.00807668
0.00813677
-9.01638e-05
-0.00766192
0.00782283
0.000505117
-0.00504315
0.00538929
0.000124008
-0.000205464
-0.00227706
0.0315256
-0.00194342
0.0310605
-0.000519607
-0.0310922
0.0304134
-0.00241539
0.0022241
-0.000373913
-0.0302422
-0.00753851
0.00792908
-0.000247755
0.000622463
6.63047e-05
0.000412744
-0.00755021
5.33506e-05
0.000441172
-0.00776694
0.000185645
-0.00489404
-0.000312176
0.0310119
0.00174964
0.00843933
-0.000294803
-7.62075e-05
0.00489332
-0.000307225
0.00185273
0.0117675
-0.00240501
0.00249696
0.00125601
0.00785601
0.00860716
0.00348108
0.000750474
-0.00101094
0.000899056
0.0019255
0.00723571
0.0090115
6.07166e-06
0.00720323
0.00684327
0.000663889
-0.000361218
0.000786615
-0.00573211
0.00311869
0.121511
-0.00133526
-0.12261
0.000440698
0.0018137
0.0303298
-0.0315827
-0.00129209
-0.00301721
0.11884
0.00391639
-0.119713
-0.00100839
-0.00272414
0.11887
-0.119552
-0.00144258
-0.00400677
0.11784
0.00372265
0.00395362
-0.00227445
0.472475
1.36143e-05
-0.00807691
-0.476755
0.000687269
-0.00100761
0.118237
0.00121987
-0.00183322
-0.00534058
0.116846
-0.00433894
0.117173
-0.00158603
-0.119168
-0.00508492
-0.00215157
0.116004
-0.00626061
-0.00285518
0.00293024
0.00079977
0.00200217
0.00243275
0.00250423
0.114438
-0.0286042
0.00157546
0.00298461
0.0293174
0.0287233
0.0283546
-0.00114759
0.000236053
0.00393285
-0.00302577
0.0276439
0.000726165
0.0281916
0.000746095
0.0300667
-4.40751e-06
0.118473
3.9778e-08
-0.00359265
0.119779
-0.00047665
-0.120352
0.00272603
0.00226655
-0.00628936
-4.67276e-06
0.117246
0.00235162
0.00242623
-0.0059457
0.118909
0.000891637
0.00350729
-0.00104833
0.0313884
-0.00430762
0.120109
-0.00105184
-0.121087
0.00721817
-0.00515716
-3.64897e-06
0.028565
0.0297042
-0.000830862
0.00215236
-0.00536028
0.00207015
0.00163327
0.00196746
0.00747221
0.00289883
2.35989e-06
0.00704744
0.00267036
-6.89251e-07
-0.0038066
0.029534
-2.90284e-06
0.00473522
-0.00340754
-0.0012039
0.000840199
0.027716
0.000793863
0.00132163
0.0309201
-0.000974439
-0.00401608
0.00137584
0.00133489
-0.000207864
0.00305955
0.00802403
-0.00348314
0.0305508
-0.000501883
0.00237561
0.00807892
-0.000342434
-0.00275021
0.0307618
-0.000637617
-0.00061383
-0.00230697
0.030868
0.0306311
-8.609e-05
0.0286943
-0.00737445
0.000781501
0.000646751
0.000875521
0.0282285
0.000813334
0.0013245
0.00134554
0.000803939
0.00121296
0.00179869
-0.00337252
-0.00179447
0.00398458
0.0278336
0.00153251
-0.00439246
0.114943
0.00108898
-0.00181428
0.00112157
0.00101424
0.00102861
0.000451766
-0.0288233
0.028631
0.00155791
-0.000384758
-0.005375
0.116184
0.00132625
0.00124989
-0.00205101
0.001505
0.00145825
-0.0282516
-0.0289579
-0.028921
-0.0298923
0.0288189
0.00148371
-0.00039617
0.0024054
-0.000659814
0.00130916
0.0292802
0.0288715
-0.000817901
0.001312
-0.00465239
0.000530952
0.00126838
0.00124808
-0.00284076
0.00102859
0.000988431
0.00116634
0.00129563
0.00137933
0.113681
-0.00141434
0.0286749
0.00153113
-0.000869537
0.0286296
0.00114947
-0.00107182
0.00722339
0.00820058
0.00741837
0.00401609
1.47579e-06
-0.00673446
0.000740912
0.0019213
0.00664143
-0.00719006
0.00224575
-5.04166e-06
0.0278043
0.00239246
0.00212876
0.00234121
0.00611708
0.00123389
0.0274007
0.000737185
0.00190177
-0.00678786
0.00661354
0.000514294
0.00226118
0.000571914
0.00241749
0.00690352
0.00357854
0.000379813
0.00680135
0.00134864
0.00416943
0.00322589
-1.01314e-06
-0.007504
-0.00748901
0.00155521
0.0293845
0.00159915
0.00147149
0.0013757
-0.00730572
-0.00759044
6.04465e-06
-5.02131e-05
3.09707e-05
0.000478984
-0.003728
0.00147153
0.00745728
0.0014955
0.000822358
0.00096405
-0.00264804
0.00211571
0.0285741
0.000995136
0.00101688
0.00739012
-0.0104051
0.00241589
0.0033305
-0.0010935
0.000901467
0.007151
0.00156125
0.00737715
0.00125375
-0.00163024
0.0292493
0.00129179
-0.00244174
0.00253437
-0.00186859
0.00242433
0.0279128
0.000753077
0.000644707
-0.00152865
0.000868008
0.0301805
0.000724563
0.000838567
0.00119958
-0.0079008
0.000584658
0.00317035
-9.94043e-05
-0.0111075
0.0022092
0.00347619
-0.000852974
0.000678711
0.000298183
0.000643998
0.0286627
3.71018e-05
0.00227344
0.0296089
0.000123657
0.00111214
-0.00769329
0.000539445
0.00771721
0.000287336
0.000168013
0.000460456
0.0310299
-0.000391184
0.000523181
4.97077e-05
-4.1408e-05
-0.000404107
0.000493569
-0.00713171
0.00755546
0.000430212
0.000575703
0.000236548
-0.00685658
0.000926675
0.00682617
-0.006998
0.00678125
0.000217761
0.00105778
0.000191721
0.0010013
-0.00744589
0.000225584
0.00139216
-0.00731549
-0.00709117
-0.00107275
0.00700952
0.00115851
2.80376e-06
-0.000985692
0.00141909
-6.88533e-05
-0.00738972
0.006995
-6.95501e-05
-0.00755465
-5.22105e-05
0.00691677
0.0294984
0.00301714
-0.000635666
-0.00225025
-0.0300186
-0.00698162
0.00686959
0.00105494
-0.000136769
0.000936144
2.52082e-05
-0.00753344
0.0290165
0.000311874
-0.000234851
0.000284514
0.000191747
0.000204286
-0.00665643
-0.00672604
-0.00689456
-0.00701666
-0.0069155
0.00690285
0.000340626
0.000739741
0.000384802
0.001006
-0.00722843
-0.00683052
-0.00011462
0.00713759
-0.00022704
-0.000110372
0.0300615
0.000745574
-0.000125033
-5.64602e-05
-0.00179189
-0.000146957
-9.81171e-05
-0.0288977
-0.000215246
-0.000124838
-3.99028e-05
-0.00666874
-0.00724355
-0.000191653
0.00779954
-2.3968e-05
-0.00708728
-0.00645988
0.0074913
-2.1082e-05
0.000224732
-0.00595791
0.00596334
0.00714783
0.00330193
0.00697872
0.00801379
-0.000149504
0.000582538
-4.47327e-06
0.00577848
-0.000324777
5.14843e-05
0.000702319
0.0104715
0.000392355
0.000223883
-0.00345074
0.000469559
0.00101619
-0.00150847
0.00119957
0.000920789
0.000478224
0.0309263
0.000395115
-0.00200378
0.0302003
0.00222905
-0.000950061
-0.000399423
0.00803412
0.000761945
0.00770774
-0.000119162
0.000539974
0.00799997
-0.000445121
0.000754371
0.000391993
-0.00109436
0.00110858
0.00801402
0.00835415
-0.00141683
0.00139049
0.00823312
0.000313237
0.00768684
0.00806
4.91779e-06
-0.00863629
0.00886524
0.000395258
0.0309174
-0.029792
-0.000941753
8.13205e-05
8.99352e-05
0.0306243
0.000606159
0.000835686
0.000536813
0.000286221
-0.00054295
-0.0304878
-0.00772137
0.00791688
0.000513194
8.90952e-05
0.000383004
-0.00851
0.000606429
-0.0077076
-0.000480318
0.00722636
-0.000384237
0.00518623
0.00826931
-0.00199513
0.00449216
0.00473714
-0.0012331
0.000244515
0.000967839
0.00980225
0.00721616
0.000377574
0.00686724
0.000975612
0.00217014
0.00683286
0.0068578
8.10368e-07
-0.00172631
0.00895577
-6.57729e-05
0.00108799
-0.00723344
0.00264098
0.00055961
0.000970012
0.119011
0.00354092
-0.0023642
-0.00495002
0.119344
-0.121068
-0.00161672
0.00695559
-0.00253243
-0.00118948
0.11857
0.00323218
-0.119372
-0.002446
-0.00108814
0.118705
-0.119196
-0.0014354
-0.00317581
0.117669
0.00287468
0.00266202
0.471088
-0.00311516
-0.00590537
-0.475049
-0.00108644
0.117817
-0.00153659
-0.00400689
0.116465
0.00398458
0.00433144
-0.00306646
3.09383e-05
0.00389943
0.00423307
0.46804
-0.00897876
0.0039529
0.00334957
0.472513
0.00372153
-0.00225447
-0.0080848
-0.476777
-0.00131808
0.47175
1.35388e-05
-0.00457958
-0.473942
0.000815082
-0.00125164
0.117318
0.00143517
-0.0020482
-0.00467541
0.115874
-0.00367979
0.115777
-0.00146764
-0.00386994
0.117498
-0.0015364
-0.119053
-0.00445198
-0.00227438
0.115223
-0.028224
-0.0291225
-0.00963354
0.00370968
0.00270228
-1.68207e-05
0.00308397
0.112859
0.0273126
0.00122628
0.00210926
-0.00151622
-0.0278774
0.00106315
0.0031584
0.0271743
0.00265995
0.0268376
-0.00430887
-0.00235285
0.00195778
0.0060157
0.113126
0.029224
-1.78357e-06
0.00399577
-3.05566e-06
-3.7879e-06
-0.000498954
0.0300687
0.117328
1.76108e-06
-0.000692332
0.118478
0.119338
-0.000781086
-0.119992
0.00272712
0.0022659
-0.00628567
-0.00123416
0.117251
0.00115268
0.00302792
-0.00608091
-3.38292e-06
0.115132
0.0298212
0.00343572
0.0304818
-0.00512951
0.118486
-0.00152928
-0.00363297
0.119148
-0.00126875
-0.120248
0.00722664
-0.00516215
-0.000931142
0.0285672
0.0056455
0.0274751
-5.78244e-06
0.0294223
-0.00129417
0.00654506
-0.00458392
-0.000181939
0.00746985
0.00289083
-0.00381211
0.029538
-0.00053826
-0.00729001
0.000277931
0.00697674
-0.000431467
0.00253696
0.0025044
-0.000264156
0.00704696
0.00266759
0.00408391
0.000661812
0.0267357
-0.00128178
0.0302594
0.0303454
0.000488498
0.00153155
0.0075122
0.00188293
0.00765802
-0.000279267
0.0295253
0.0278155
0.00280113
0.0273758
0.00457051
0.00664027
0.00092991
0.00203169
-0.00691881
-0.0011143
0.00663061
0.00114645
0.00158053
-0.00114641
-0.00718855
0.00122216
0.00153952
0.00681669
0.00104035
0.00114638
0.00673303
-0.00174978
0.00148679
0.028044
0.00321098
0.00151244
-0.00339252
0.000670464
0.000735543
0.000622153
0.000695827
-0.00163261
0.114404
0.000610952
0.0285081
0.00109828
-0.000497404
-0.0034648
0.115609
0.000988291
0.00100773
-0.00157644
0.000902169
0.000903177
0.0286181
0.00111539
0.000621541
0.0284835
-0.000416141
0.000833466
0.0285047
0.000894019
0.000395243
-0.028036
0.0281058
0.000354736
-0.000371789
0.000628272
0.000393936
8.7722e-05
-0.000388211
-0.0289986
0.0287989
0.00152947
-0.0291898
0.0289696
-0.000413709
0.00149556
-0.00403616
0.116889
0.00131793
0.00139095
0.00139549
0.00127328
-0.00175167
-0.11853
-0.000542566
0.00215119
-0.0296759
-0.000535666
0.00193743
0.0285271
0.00135475
-0.00695203
-0.00026067
0.000654025
0.000356155
0.000573092
0.000831819
-0.000634184
0.0293292
0.00069438
0.0288772
-0.000906573
0.000991384
-0.0283319
0.00122018
-0.000808277
0.000779062
0.0281695
0.00240845
0.0273056
0.0013888
-0.000878313
0.000953572
-0.0282135
0.00157172
0.00116358
0.0279941
0.00136085
-0.00258022
0.00388438
-0.00232465
0.000556956
0.000654465
0.112894
0.00015506
0.000440774
-0.00167472
0.0286646
0.00114251
-0.00100174
0.028544
0.000809671
0.00741084
-0.0003029
0.00398494
-0.00684562
0.026626
0.00195685
0.00144991
0.00198188
0.001887
0.00175743
-0.00665763
-0.000280755
0.00645485
-2.27935e-06
0.00273157
-0.00719112
-0.00695461
0.00224849
-0.00155218
0.0277997
0.00239111
0.0021487
0.00235522
0.00766925
-7.76283e-06
0.0270222
-0.000325919
-0.00676229
-1.75351e-06
0.00282479
-0.00672301
0.00653394
0.00255138
0.0027677
0.0273243
0.0046695
0.000977633
-0.00673959
0.000662993
0.00242205
0.000732374
0.00272249
0.00636116
0.000556987
0.0052252
0.00367958
-3.30542e-06
0.00750028
0.00165079
-0.000328031
0.00321433
-0.000603457
0.00936332
-0.00731523
0.00252644
-0.00329271
0.0283656
0.00147778
0.00126968
0.00128087
0.00136746
0.000344453
0.000394744
-4.56046e-05
0.000337878
0.0074294
-0.00650131
6.76031e-05
-0.00132149
0.00945806
-0.00204235
0.00280664
0.00723694
0.00308208
0.00144475
-0.00762327
0.00032545
-0.00843656
0.00406601
0.000434041
0.00151481
0.00724473
-0.00774528
-0.000144147
-0.000864075
0.00745561
0.00388125
-0.0101744
0.000302176
-0.00136813
0.00717828
0.00182367
-0.000147254
0.0074411
-0.001109
2.34939e-05
-0.00190746
0.0292136
0.000438095
0.00357601
-0.00238999
0.00208123
0.0277312
-0.00692026
0.00670926
0.00135631
0.000996195
0.0013424
0.000945559
0.00821174
0.00238884
0.00223187
0.00649185
0.00256173
0.00212553
0.00207361
0.0276939
0.00106879
0.000393705
-0.00164929
0.00101828
0.0303239
0.000819999
0.000787104
0.00104914
-0.000480777
0.00304028
0.00048587
-0.00690985
0.0278691
2.91786e-05
0.00014522
2.74494e-05
0.000138683
0.000361695
0.00021258
0.000480834
0.000552513
0.0297247
-8.55886e-05
0.000167847
5.75955e-06
-0.000147137
7.1801e-05
-0.00796873
6.72162e-05
0.000587928
0.00812409
0.000288243
5.27274e-05
0.00761772
-0.000156002
-7.72898e-05
0.030895
-0.00035802
-5.56805e-05
3.26396e-06
0.000481812
0.000477468
-0.00178651
0.00791636
-0.000240255
0.000502387
-0.00742007
0.00836533
7.28799e-05
0.000699651
-0.00700238
0.00694931
0.000123383
0.00130596
-0.00690443
0.000408698
0.000984277
0.00403526
0.000494396
-0.00988737
0.00147715
0.00296879
-0.00957342
-0.0070593
1.60745e-06
0.0011634
-0.000136418
0.00138981
-0.00744541
0.0290483
0.000976048
-0.000816586
0.000911435
0.0010084
0.000931454
-0.00743295
-0.00717596
-0.00742598
-0.00725338
0.00242297
-0.000534448
-0.00228059
-0.0299195
-0.000394857
-0.00648593
0.0067566
-1.67792e-06
0.000437737
0.0292507
0.000296396
-0.00207518
0.000255894
0.000171801
0.000162424
-0.00697607
-0.0068213
-0.00699526
-0.00675869
-0.00673772
0.00694409
0.000423034
-0.000694606
-6.98089e-05
0.000806528
-0.0063363
0.000709521
-0.00693157
-0.00578302
0.00559727
-6.2375e-05
-0.000401797
-0.00704566
0.00743695
-0.000224903
-0.00702719
0.00723805
-0.00047567
-0.000193447
0.0307045
0.000265954
-1.35803e-05
2.40281e-05
-0.0023243
-7.79596e-05
-9.89056e-05
-0.0302717
-0.000404997
2.51952e-05
-0.00693765
-0.000542108
3.83491e-05
-0.00702655
-0.000304777
-0.00529342
0.00925433
-0.000151284
0.000340249
-0.000184501
0.0066653
-0.000415208
0.000142977
0.000549463
0.0113029
-0.000646858
-0.00820909
0.000536379
0.00812669
0.00120906
-0.000953388
-0.00280059
0.00229284
0.0301529
-0.00774283
-0.000640407
0.000920594
0.00801535
-0.000430959
0.000761565
-0.000319428
0.000623839
-0.00389187
0.00235167
0.00125992
-0.00189934
0.000746555
0.0297813
0.00132176
0.00125638
0.000625787
0.00764986
0.00166503
0.000295158
0.000322659
0.0305804
0.000522642
0.000229182
0.000592098
0.000820163
-0.00107332
0.00144074
-0.00644819
0.00188224
0.117687
0.00167129
-0.000343872
0.00179088
0.00174112
-0.00118531
-0.000634934
-0.000846337
-0.118937
-0.000413911
0.00969754
0.000548148
0.00799524
0.00060548
0.00803574
0.000622613
0.00940729
0.00809473
0.00226286
0.000319991
-0.00528489
0.00536016
0.00770591
-9.31933e-05
6.19703e-05
0.000626304
-0.00769484
0.00018829
-0.00746712
0.00784537
0.000578171
-0.000309028
3.95963e-05
0.00783546
0.000555953
-1.3931e-05
0.000558993
-0.00781915
-0.00946189
0.00964352
0.000691144
0.00031642
-0.00521831
0.000865177
-0.00934224
0.00108593
0.00960034
-0.000488992
0.00740818
0.00355162
0.00234814
0.00534367
0.00696721
0.00238112
0.00384622
0.00723966
-4.28432e-06
0.0067915
-0.000632843
0.00678285
-0.00753955
8.06974e-05
0.000931309
0.00312134
0.000782361
0.116099
0.00128678
0.00296257
0.00360012
0.000629131
-0.00294303
0.0304246
-0.00519116
0.117838
-0.00211517
-0.00151763
-0.00100542
0.117674
-0.118771
-0.00210739
0.118403
0.0027754
-0.00105627
-0.119204
-0.00370973
-0.00127716
0.118251
-0.00168655
0.118791
-0.000932134
-0.00168667
0.115072
0.00292697
-0.00284737
0.00492854
0.00123228
0.469909
-0.00267219
-0.00545566
0.00126979
0.000901096
0.471833
0.000636676
-0.00361764
-0.00260666
-0.473049
0.471423
-0.00210512
-0.00346916
-0.473072
-0.000513442
0.115999
-0.00235252
-0.00460786
0.116926
0.00432221
0.0038813
0.00422409
0.00397244
-0.00298769
0.468072
-0.00894039
0.00081344
-0.00201919
0.117748
3.81549e-06
0.11629
-0.00196413
4.911e-05
-0.00189403
0.00343766
0.466191
0.00695512
0.00236576
-0.00710001
-0.00150483
4.9373e-05
0.469452
-0.00522555
0.118255
-0.00101663
0.00270774
0.471223
0.00283389
-0.00310063
0.00259984
0.00241643
-0.00586102
-0.475074
0.471811
-0.00127369
-0.00464871
-0.47396
-0.000825684
0.471247
-1.66938e-05
-0.00279191
-0.472192
0.000990415
-0.00146303
-0.00217594
0.114213
-0.00461426
-0.0011435
0.115868
-0.00243477
0.116381
-0.00138
-0.0032194
0.117779
-0.00140158
-0.118731
-0.00217202
-0.00189584
0.114358
-0.028223
-0.0291237
-0.00961286
-0.0276511
0.00370597
-0.00294893
-0.0282026
0.00341243
0.00307739
0.00270013
0.11285
0.0264691
0.00476814
-1.62892e-05
-0.00648868
0.009314
-2.93696e-05
0.112021
0.00342652
0.00137334
0.00137408
0.00174403
0.000763082
0.11058
-0.00284176
-0.00160914
0.0012962
0.00257881
0.113702
0.0292243
-0.000242346
0.00399664
-0.000732531
-0.000755048
0.117332
-0.000815373
0.118859
-0.00101429
-0.119551
-0.00531895
0.11688
-0.00184808
-0.00606714
-0.00143222
0.115134
0.0283602
0.00311273
0.00393575
-0.00450608
-3.87472e-06
0.114143
-0.00394337
0.117894
-0.00152267
-0.00302576
0.118643
-0.00131774
-0.119667
0.00409845
0.00577442
-0.00126199
-0.00472547
0.0287042
0.0056521
-0.000851675
0.0274669
-0.0012417
0.0294364
0.000418216
0.0292838
0.00250634
0.00194353
0.00206688
0.00240813
0.0291183
0.00308071
-0.0271723
0.00354664
-0.000122184
0.0031522
0.00303107
0.00258494
0.108249
0.00215054
0.0271398
0.00342192
-0.00679366
0.000915569
0.000970756
0.0266701
0.00429954
0.00114979
0.00100728
0.00678088
0.0011889
0.00217558
-0.00682195
0.00145008
0.00151505
0.00129082
0.00126101
-0.028344
-0.000589271
0.000521545
0.0282739
-0.000668761
0.000686706
-0.0283815
0.00043737
-0.000388795
0.0283658
0.000609619
-0.000480557
-0.00228156
0.000429898
0.000639626
-0.00119261
0.00161065
-0.000530879
0.115302
-0.00159643
0.000323507
0.00029602
-0.00130142
0.113875
0.000270383
0.000211673
0.000588542
0.0281151
0.000248676
-5.27165e-05
0.000227342
0.000512382
-0.000435259
-0.00045634
0.0286892
0.00105687
0.0288793
-0.000419706
0.00106139
-0.00282826
0.116343
0.00092793
0.000610648
0.00065318
0.000954571
-0.0013485
-0.000302182
0.0287069
0.00077052
0.0292096
-0.000469863
0.000740554
0.0284084
0.000916029
0.000667706
0.0280932
-0.000474895
0.000160928
0.000175283
0.000451404
-0.000125138
0.0282875
0.000680931
5.07839e-05
-0.00673821
0.00681692
0.000280791
-5.55535e-05
-0.000325159
-0.0287219
0.0285849
0.000373167
0.000635098
0.000439774
0.000171787
-0.00668884
-1.15806e-05
0.00705091
0.000328563
0.000112128
-0.00673942
-8.73626e-05
0.000370375
0.000167956
-0.00696897
0.000312029
-0.0291509
0.0289538
0.00153559
-0.000434331
-0.0290894
0.0288438
-0.000293241
0.00170931
-0.0295508
0.00181366
-0.000558487
-0.000493273
0.000693442
0.00070474
0.000666166
0.000645796
-0.0295102
-0.000519073
0.000642149
0.00064726
0.000526174