/*--------------------------------*- C++ -*----------------------------------*\
  =========                 |
  \\      /  F ield         | OpenFOAM: The Open Source CFD Toolbox
   \\    /   O peration     | Website:  https://openfoam.org
    \\  /    A nd           | Version:  12
     \\/     M anipulation  |
\*---------------------------------------------------------------------------*/
FoamFile
{
    format      ascii;
    class       surfaceScalarField;
    location    "0";
    object      phi;
}
// * * * * * * * * * * * * * * * * * * * * * * * * * * * * * * * * * * * * * //

dimensions      [0 3 -1 0 0 0 0];

internalField   nonuniform List<scalar> 
246185
(
0.00548453
-0.000200484
-0.00547173
0.000187672
0.00550039
-0.00020896
0.000193098
0.0134345
-0.000157182
-0.000247189
-0.0134039
0.000173269
0.00551358
0.000207154
-0.000220356
0.013469
-0.000167061
-0.000249947
0.000173546
0.0118049
1.5666e-06
-0.000189868
-0.0117738
0.0115487
-1.59322e-05
-0.000340939
-0.011522
8.301e-05
0.00552963
0.000244775
-0.000260841
0.00984913
0.000451259
-0.000302421
-0.00979083
0.0134853
0.000185441
-0.000188608
-0.000233526
0.0118268
-1.39312e-05
-0.000175063
-0.000348078
0.0116152
-0.000166855
0.000198464
0.0117129
0.000146618
-0.000155063
-0.0117029
-0.000305259
0.0119332
1.21937e-05
-0.0118459
0.000341016
-0.00019748
0.0113413
2.51107e-05
0.000191305
-2.8072e-05
0.0110199
0.0118208
0.0112792
-0.0462502
-0.000995641
0.00045852
0.00558627
0.000330906
-0.000387546
0.00991361
0.000508208
-0.000327923
0.0135182
0.000210086
-0.00022424
-0.000279629
0.0133619
0.000257433
-0.000519646
0.000618336
-0.0132668
0.010786
0.000236803
-0.000359461
-0.0107804
0.0118465
-2.56518e-05
-0.000182638
-0.000174323
0.011565
0.000104969
-0.000113996
0.0117395
0.000145116
-0.00018567
0.0119504
-1.81997e-05
0.0132129
0.0001953
-0.000231831
0.000167952
-0.0131978
-0.000191576
0.0118558
7.05517e-05
-0.0118777
0.000153293
-0.000151463
-0.0117023
-2.42212e-06
0.000129686
0.0112562
0.000179777
3.03587e-05
-0.0117935
0.000222333
0.000234082
-0.00012457
-0.000477384
0.0114868
0.011616
5.52868e-05
-0.0117081
0.000492611
-0.000786766
0.0116775
6.41293e-05
0.000315499
5.13434e-05
0.0117137
9.05804e-05
-6.53729e-05
0.000174854
0.0110422
0.000159441
0.000248237
-6.24696e-05
0.0117096
4.47577e-06
0.0113504
0.000364803
0.00566831
-0.000446856
0.0100016
0.000571825
-0.000328883
0.0135313
0.000260062
-0.000289079
-0.000371608
0.0135045
0.000560965
0.000261847
-0.000457273
0.0108285
0.000234024
-0.000394346
0.0118688
-3.31052e-05
-0.000213504
-0.000316808
0.0115497
0.000177188
-0.000124681
0.0109978
-0.000701303
0.000660337
0.000272926
-0.0109723
0.010929
0.000135682
-0.000333118
-0.0110145
0.0075557
0.000515916
-0.00745329
-0.00045186
0.0111675
0.000225544
-0.0111957
0.0117675
0.000142871
-0.000196528
0.0119395
-3.74336e-05
0.0132402
0.000199796
-0.00024077
0.000158845
0.0118912
7.62333e-05
0.00536048
0.00018607
-0.00535125
-0.000276608
0.0114307
0.000102849
-0.0114182
0.0105969
0.000265478
-0.000330594
-0.0105943
0.000230429
0.000195067
-0.000213937
0.000173147
-0.0131988
-0.000252223
8.66001e-05
-0.0118685
4.95991e-06
0.000159148
-0.000133484
-0.0117134
-1.45399e-05
-0.000138673
0.000795219
-0.00150777
0.000122221
0.0457067
-0.0456366
5.18808e-05
0.000192735
0.0111579
0.000251105
-0.0117101
0.000425311
-0.000823202
5.65382e-05
-0.0112778
-0.000174302
0.000351748
-0.000338981
0.011478
6.21075e-05
0.00045134
0.000966391
-0.000193561
-0.0017919
0.0457395
0.000247262
-0.0459619
3.32311e-05
0.00033752
-0.000121843
0.0116892
0.0113436
7.36138e-05
-0.0114458
5.54882e-05
-0.0116397
4.91991e-05
0.00043857
-9.23617e-05
0.0116711
0.000302625
0.000108763
0.0114221
0.000287376
3.10117e-05
0.0116846
0.000120069
-0.000101489
0.000383671
6.0818e-06
-0.00183787
0.0450631
0.000345065
0.000898094
-0.0451493
0.000468049
0.0116938
9.31954e-05
0.000288449
-7.00712e-05
0.0117356
0.0114934
0.010066
-0.000436868
0.000737252
0.000380111
0.00569375
-0.000405562
0.000281184
0.0135904
-0.00031994
-0.000467249
0.0137926
0.0006184
0.000231772
-0.000566393
0.0109057
0.000301065
-0.000447114
0.0118774
-3.57608e-05
-0.000261912
-0.000408881
0.0115571
0.000157135
-0.000127214
0.00767079
0.000445873
-0.000584404
0.0110679
0.000690182
8.58574e-05
0.00020152
-0.000604274
0.0111085
0.000142751
0.0111912
0.0118021
0.000158792
-0.000226508
0.0119342
-4.44638e-05
0.000277654
-0.000326343
-0.00244372
4.0816e-05
0.00110364
0.0443487
0.000185447
-0.0441347
0.012376
0.000781827
0.000318105
-0.0122997
0.0110439
0.000706303
0.000244132
-0.0114438
0.01091
-0.0113378
0.0132954
0.000213112
-0.000283914
0.000158405
0.0118913
5.32973e-05
0.00537586
0.000184416
0.0114192
0.000149556
0.0106325
0.000285804
-0.000350283
0.000187697
0.00962525
-0.00959349
0.00041977
0.000192837
-0.00534903
-0.000423193
0.0110221
-0.0110406
0.000213929
-0.000266278
0.000163054
-0.0114423
0.000277866
-0.000337097
0.000218405
-0.0105803
0.010798
0.000481857
-0.000319869
-0.0108833
0.000153744
0.000199775
-0.000223022
0.000186265
-0.0132027
-0.000152982
7.98194e-05
-0.0119096
-1.92031e-05
0.0453193
-0.000151684
-0.00147514
-0.0452565
5.6322e-05
0.00172823
-0.00212028
0.000207408
-0.0449147
0.0452215
0.000293065
-0.000177831
-0.00162119
0.000132597
0.0458317
0.000715864
0.000803291
-0.00012004
-0.00147703
0.000256953
-0.000106669
-0.0458088
-7.59793e-06
0.000359338
-1.90284e-05
-0.0446796
0.0447117
0.000410718
0.000862964
0.000411157
-0.0111817
-7.97243e-05
9.27558e-05
1.83984e-05
-0.0117314
0.000222353
0.000462279
-0.000126383
0.0113134
0.000270156
0.0110173
0.000267894
-0.000106169
0.0451426
0.000446972
-0.00191149
-0.0453639
1.28712e-05
3.28283e-05
-0.000108906
-0.00218761
0.00106868
0.0456754
0.000194121
0.00105213
-0.00129847
0.0451108
6.44244e-05
-0.0454674
4.42998e-05
0.000229998
0.000180488
0.0112473
0.000121426
-0.0113668
5.59895e-05
-0.0117575
1.6121e-06
0.000358983
7.59229e-05
0.0112883
0.000330805
0.0117967
-5.07914e-05
-0.000264136
-8.87541e-05
0.000567579
-0.00245649
8.3314e-05
0.045282
0.000345941
0.0010703
0.000564823
9.47761e-05
-0.000136255
-0.00234555
0.0446958
0.000334306
-0.0447833
0.0113874
0.000332277
0.0111745
8.54093e-05
0.000298113
-3.08432e-05
0.0116129
0.0114134
-0.000573737
0.000835535
0.0101843
-0.000554943
0.0110013
0.000303678
0.013811
-0.000687785
0.000356983
0.00104961
0.000485265
0.00583235
-0.000623872
0.000285581
0.0138258
-0.000303822
-0.000622713
0.011953
-1.99897e-05
-0.000375492
0.000216492
-0.000548157
0.0115657
-0.000144213
0.00790658
0.000382605
-0.000750516
0.0111908
0.00071373
0.000145709
0.000125708
-0.00042274
0.0111402
0.0112167
0.00025213
0.0118359
0.000208077
-0.000277646
0.0118957
-5.25548e-05
0.0124405
0.000854912
0.000216644
-0.000179746
0.0115175
0.000895641
0.0133815
0.000239904
-0.000323914
0.000156751
0.0119009
5.02156e-05
-0.00281716
7.02862e-05
-0.00030245
-0.000203486
0.000668831
0.000337821
0.0450046
-0.000259062
0.00122452
0.00315895
-0.00220428
0.0444267
-0.000514463
-0.0446815
0.00777856
0.000729322
-0.00772606
5.60638e-05
0.011617
0.000961278
-0.01161
-5.21741e-05
0.0456521
-0.000617556
0.000955127
0.000522909
0.000958917
0.00138268
-0.0455227
0.00540309
0.000185879
0.0114526
9.49341e-05
0.0106648
0.000292282
-0.000369084
0.000202968
0.00966518
0.00043029
0.000124986
0.0110557
0.00018682
-0.000535516
0.0109438
0.000390568
0.000464339
-0.00958713
0.0131912
-0.0130704
0.000230078
0.000550774
0.000200921
-0.00535018
-0.000351224
0.000156223
-0.0110196
0.000324495
0.0108006
-0.01125
-0.0002701
0.000119682
-0.0114351
0.000392039
-0.00053069
-0.0107687
0.000242385
0.000269928
-0.000332784
0.000263015
-0.0105942
-0.002305
2.85488e-05
0.000651754
-0.0433605
0.000533976
0.0435593
0.000304639
0.000975055
0.000277298
-0.00181323
0.0451655
0.000239583
-0.00340829
-0.000677726
0.0459759
-0.0441619
0.00162203
0.179903
-0.000276016
4.68328e-05
-0.180794
3.91455e-05
-0.00542423
0.000384218
-0.0454802
-1.55852e-05
-0.000128275
0.00200522
-0.000903924
-0.00763392
-0.000354492
0.178046
0.000626754
0.00237957
0.00398616
-0.178493
0.00165085
-0.00115297
-0.0452839
0.00183615
-0.00136182
-0.000120549
0.0450003
0.00245878
-0.00220197
-8.29422e-05
0.0455489
-2.14354e-05
0.0109748
0.000653348
0.00026519
0.000197529
-0.0117327
-8.66345e-05
0.000861366
0.000425393
0.000494168
-1.34543e-05
-0.0447539
-0.000142825
0.00047991
0.0450028
0.000207869
0.000416214
5.43642e-06
0.00090084
-0.044193
1.17981e-05
0.0442921
0.0112816
0.000198731
-0.0112373
-1.71198e-05
0.000326985
2.0722e-05
0.0462152
0.000415399
0.000358359
0.000412315
-0.00198278
-9.49298e-05
0.0451169
-8.4148e-05
-2.88004e-05
0.000863742
0.0440396
-0.045726
-0.000224337
0.00388962
0.178992
-7.00371e-05
-0.180121
-0.00638913
7.20361e-05
0.000683546
0.0117591
-8.3361e-05
-0.00261657
0.000151531
0.000250645
0.0456021
0.000169794
0.00111258
0.00108865
0.000236032
-0.00271043
0.0453228
0.000683664
0.0116983
0.00220877
0.000466764
0.000675524
-0.00921473
0.177754
0.00412245
-0.00143668
-0.0427628
-0.0439259
-0.043837
-0.0452318
-0.0114701
0.000510787
-0.00327288
-0.000295256
3.11885e-06
7.5017e-05
0.0454224
0.000990791
0.000350438
0.000833718
0.00145913
-0.000170466
-0.000113997
-0.000375871
0.0448092
-0.000169155
-0.0110091
0.000785393
0.0115335
0.0112739
-8.8378e-05
0.011501
0.00036709
0.0435797
-0.04535
0.000516526
0.0116744
-0.000724343
0.000337798
0.0110997
-0.00103773
0.000288251
0.00140962
0.0139864
-0.000895528
0.000991115
0.0105739
0.011338
-6.31682e-06
0.0114452
0.000777715
0.00826096
0.000695215
0.000628865
0.00632525
-0.00112177
0.000252195
0.0143251
-0.000374389
-0.001001
0.0121978
-0.000570104
2.14776e-05
0.000179493
-0.000738022
0.0116361
-0.000134608
-0.000352498
0.0119153
0.000253021
-1.16556e-05
0.0119042
0.0127138
0.000770548
5.24604e-05
0.0110985
8.33541e-05
0.000819219
-0.000340955
0.0134512
0.000310124
0.000169125
0.0119009
-3.17459e-06
0.00788065
0.000752809
0.0117239
0.000953209
0.00544864
0.000194349
0.000148536
0.0115412
-0.000401035
0.0107299
0.000328115
0.0001645
-0.00380754
-0.000237086
0.00017795
-9.9271e-05
0.00104373
-0.000757647
0.045308
0.00124003
0.000563906
0.00163685
-6.43179e-05
-0.000528953
0.00326383
-0.00325294
0.0446857
-0.000333673
0.0116548
0.000995535
0.00309162
0.00128204
-0.00992342
0.00283494
0.175558
-0.177811
-0.00158698
0.00302982
0.0028487
9.44729e-05
0.014685
0.00120249
-0.0142913
0.000208401
0.000199113
-0.00105696
0.0450048
0.00115464
0.00147934
0.000616905
0.00105943
0.0448519
0.0034242
-0.0451533
-0.000648752
-0.0117545
-0.00019365
-0.000114752
0.0118606
0.00115741
6.79921e-05
0.0112806
3.65318e-05
0.000917855
-0.01178
0.000984615
-0.0116177
0.0118665
-0.000473509
0.00107666
0.00974075
0.000402578
0.0110707
0.00019075
8.87462e-05
-0.000338708
0.0108953
0.000501431
0.00029325
0.013215
0.000503777
-0.0131128
0.000359038
0.000539712
0.000465497
-0.00958179
0.0108497
0.000267595
-0.0108354
0.000599912
0.00724205
-0.00718702
0.000495738
2.33095e-05
-0.0107865
0.00024423
-0.0110515
0.000204963
-0.000332983
0.000502754
-0.0108804
-0.00241646
-0.000371517
0.000587217
0.000697984
0.000647001
0.000350217
0.00105191
-0.0434363
0.000160432
0.0109343
0.000582184
-0.00228663
-0.000277807
8.69854e-05
-0.0001289
0.000645497
0.0440088
1.72581e-05
0.000492769
0.000179733
0.000910271
-0.0030498
-0.0436369
0.0438887
6.41753e-05
0.00303841
-0.0106664
0.011152
-0.000110231
0.000760165
-0.0110743
0.000301123
0.000651649
0.0019373
-9.79161e-05
0.178907
0.00379442
-0.000421187
-0.00625455
-0.000310484
0.0451164
0.000682756
0.044073
-0.0461106
0.178699
-0.17984
-0.00589713
-0.000549016
0.0109698
0.176978
-0.00134579
-0.178901
-0.00805594
5.61659e-05
0.00236539
0.000921245
-0.00793949
-0.00129825
0.177869
0.00402081
0.00221019
0.000402907
-0.00060684
0.0432454
0.00242091
0.000786181
-0.0452189
-0.0443426
-0.000835584
0.0450292
0.00243289
-0.00268039
0.045221
0.00311033
-0.00269468
-0.000112633
0.0451625
-0.0112602
6.84668e-05
0.0452742
0.000547579
0.00100543
4.67899e-05
0.000513966
0.0444259
0.000152856
9.34473e-05
0.0111409
0.0108612
0.000585183
0.0113573
-0.000197697
0.000123151
1.94361e-05
-6.70858e-05
0.0460444
0.000731709
0.00108094
0.000967345
0.000663877
-4.05505e-05
0.000132841
0.0118193
0.0115048
5.05849e-05
0.000425295
0.000117628
0.011507
-0.00246297
-9.58467e-05
0.000318968
0.0447401
0.0458102
-0.000271438
0.000545771
0.00264809
0.176935
0.00444182
-0.000472064
-0.00729818
0.177868
-0.000903043
-0.179645
-0.00660479
5.37592e-05
0.0110933
0.000565811
-0.000188234
-0.00232652
0.0448153
-0.00020998
-0.00340174
-1.45168e-06
0.00482156
0.0443937
0.0110197
0.00060689
5.90785e-05
0.00110601
0.011164
0.00107969
0.0110909
0.00328871
-0.000624716
0.00101408
-0.00961556
0.000190281
0.175994
0.00104716
0.00361878
0.00496549
-0.00231284
0.0453555
-0.00793075
0.176303
-0.178149
-0.0015828
-0.000356577
0.0447219
-0.00436055
-6.66106e-05
-0.000270078
0.044514
0.00133595
0.0019105
0.000790189
0.00156902
-0.0113193
0.000121871
0.00102299
-0.000207288
0.0113725
-0.000243464
0.0111093
0.000780962
0.00124561
0.0116227
-0.0113433
0.00114203
-7.84501e-05
0.0111889
-8.73998e-05
0.000680639
0.0114916
0.0113198
0.000269634
0.0112097
0.0116644
-6.81784e-05
0.00118094
0.00114622
0.00852435
0.000234292
-0.00127262
0.00173957
0.0142762
-0.00133796
0.00121332
0.0113274
6.39677e-06
0.0135989
0.000581485
0.000201272
0.00105264
0.010569
-0.0054977
0.000197877
0.0151853
-0.000799591
-0.00138024
0.0132315
-0.00123342
-0.000174751
0.0116884
-0.000118541
-3.71948e-05
0.0119173
-0.000620881
0.0121843
0.000373375
0.0135568
0.00041911
0.000153641
0.00829441
0.000356785
0.0115144
0.00128961
0.0055223
0.000236456
-0.000413614
0.0108106
0.00030944
0.000192625
0.0147887
0.0014875
0.00983251
0.0004307
0.0110672
0.000448911
-0.0011514
0.00365959
-0.0028836
0.0443034
-0.00497771
0.000364651
-6.47017e-05
-0.00148521
0.00182454
0.000229448
0.0445867
0.00162547
0.00203829
0.00100687
0.000159574
-0.000243058
0.0116478
0.00173393
0.0112122
-0.000142311
0.00108063
-0.000582098
0.0116717
0.00151642
0.0114981
0.011663
0.00105243
0.0443154
0.0032542
-0.00093977
0.000169813
0.00181736
-0.00926186
0.00124553
0.00271128
0.00273322
0.173133
0.00242606
-0.00304985
0.0024826
0.000153241
0.0105963
-0.0102555
0.000708408
0.000492338
0.000438362
-0.00180001
0.0445215
0.00106752
0.000613967
0.00128774
0.00131856
-0.000433875
0.0116298
0.000388469
0.00143085
-0.0111634
0.000606957
-0.000732504
0.011446
0.00132232
-0.000240456
0.00112654
0.000418997
0.011415
0.00146219
0.000144105
0.00037886
0.0455435
-0.045788
-0.000604284
0.00331298
-0.0117896
-0.000334066
6.83858e-05
0.0119726
0.00124008
7.57412e-05
0.0115381
-0.0115441
0.000992198
-0.0115803
0.00100428
0.0116742
0.000985353
0.000162043
0.013414
0.000542907
0.000441987
0.00730383
0.000290961
0.000606009
-0.0130415
-0.0107867
0.000258159
0.000639455
-0.00717798
0.00053066
0.0120171
0.00032077
-0.0119545
0.000712197
0.000349239
0.000672844
-0.0108199
3.50625e-05
0.00349458
-0.0440987
0.010617
0.000392393
0.000762749
-0.0110727
-7.54425e-06
0.000860303
0.0110099
0.000158542
0.000573341
0.000242992
0.0121291
0.000669162
-0.00252458
0.000158738
-0.000220268
-3.53812e-05
-0.00033225
-8.45139e-05
0.00102281
0.000552478
0.000650201
0.000126562
0.044695
-0.00194214
0.0438746
-0.000508288
0.00248169
7.28626e-06
-0.000212846
0.0111366
0.000571695
0.010795
0.000176
0.000519294
0.0113444
-0.000238027
0.000606136
0.175179
0.00385496
-0.00102035
0.00338894
-0.00015852
-0.000346178
0.000485416
0.00379994
0.00321422
-0.177378
-0.000124027
-0.000115183
-0.0435956
0.0437106
0.000105671
0.00089439
0.00115588
0.000721079
0.000476438
-0.0107564
0.0109
0.000735504
-0.0108059
0.000906757
0.00245092
0.176838
0.000447721
0.00261542
0.00439763
-0.00090397
-0.00720981
0.0457978
0.177664
-0.00628515
-0.00104051
8.75584e-05
0.0446893
0.00879611
-0.0019763
0.176228
-0.00736784
0.000967321
0.00441443
0.176444
-0.00179462
0.00299923
0.0026384
-0.179454
-0.00756055
0.000425114
-0.000420618
0.00117841
-0.00911843
-0.00243518
0.175898
0.000794952
0.00298628
0.00340991
0.00475693
0.000393987
0.000485195
-0.043298
0.00283758
-0.00127688
0.0452729
0.0446651
0.000344797
0.00303883
-0.00221536
0.04471
0.00417412
-0.00330375
-0.000311836
0.044394
-0.000201964
0.0453093
0.000915247
0.000184818
0.000718532
0.00132004
0.000164389
0.0111611
-0.0109621
-4.65808e-05
0.000687897
0.0114849
0.000386139
0.000492136
0.011254
0.000536186
-0.000409455
0.0442433
0.0016507
0.00144158
0.00144849
0.00130768
0.0119101
-1.71431e-05
-4.89441e-07
-1.44943e-05
0.00132424
0.0116818
-0.0115346
2.6935e-05
0.0115326
0.000941927
0.000590282
2.88794e-05
0.0112619
0.00121673
0.0437237
-0.000239245
-0.000124858
0.0443506
-0.000182733
0.00292199
0.174524
0.0026822
0.00442402
0.000937687
-0.000924513
-0.00744841
0.00379735
0.0451431
0.176145
-0.00142063
-0.00694448
0.17684
-0.17834
-0.00126793
-0.0060663
0.0444409
0.00122376
0.0441817
0.00170913
0.00156445
0.00131775
-0.000126568
-0.00347573
-3.16081e-05
0.00439974
0.0436279
0.00124456
-0.000370222
-0.00939206
0.000542548
0.173179
0.0004587
0.00390442
0.00476894
0.00338305
0.00137157
-0.00309599
0.0433323
-0.00110993
0.0442028
0.00423815
0.0447671
-0.00753298
0.174418
-0.00215632
-0.00442047
-5.85847e-05
-0.000533936
0.0434293
0.00143629
0.00108462
0.00189283
0.00168389
0.000131443
0.011284
0.00138728
-9.42897e-05
-0.011095
5.71737e-05
0.00184816
0.0114648
0.00138465
-7.46903e-05
0.0111354
0.0018495
0.000212666
0.0112442
0.0146222
-0.000244646
0.00154845
0.00112447
0.00913945
-0.000284691
-0.00179483
0.00252403
0.015045
-0.00207906
0.00113404
0.0124737
0.00045867
0.00841722
0.00796077
-0.000933905
-0.00597423
0.00187759
-0.000432472
0.0110088
-0.00188493
-0.00208784
0.000172578
0.000774813
0.010828
-0.00168008
0.0121868
0.00192517
0.0114938
-5.61918e-05
0.0117676
0.000549791
0.012784
0.0139496
0.000440277
0.000130575
0.00568877
0.000252644
0.000142748
0.0109516
0.000361956
0.0149844
0.00183915
0.00993546
0.000442937
0.0110542
0.00055631
0.0111798
0.000972414
0.0135121
0.000568651
0.0044175
0.0438843
-0.0112933
-0.000596217
0.000239791
0.0112439
0.00223034
-0.0114601
-3.71477e-05
0.00198918
0.0115857
-0.00519092
6.29979e-05
0.000448104
-0.00173878
0.00212271
0.000445867
0.0432002
0.00177074
0.00118376
0.00200588
0.000276143
-0.00047159
0.00216693
-0.0109129
-0.000822442
0.0112512
0.00192617
-0.000401444
0.00169559
-0.000321028
0.0153904
0.00241121
0.0114804
0.00151091
0.0114158
0.00169829
0.0156839
0.00123063
0.0437536
0.00300227
-0.00152923
0.000686424
0.000530838
0.0444329
0.00359818
-0.00142358
-0.00168534
0.0021174
0.00284494
0.0432098
0.00202202
0.000534121
-0.00804564
0.00160083
0.00253528
0.170462
0.00188705
-0.00368919
0.00209978
0.00140938
0.00231711
0.0429217
0.00210628
-0.0010687
-0.0432186
-0.00755498
0.170388
0.00173994
0.00164718
-0.171696
-0.00144394
0.00197459
0.00189507
0.000713188
0.000640246
0.00504575
0.0434333
-0.0109644
-0.000789041
0.00075816
0.0105661
0.00149663
0.000656471
0.0106663
-0.0003777
0.00111486
0.000788876
0.0016059
-0.000724938
0.0105849
0.00133583
-0.000608645
0.0116931
0.000551764
0.00176731
-0.0113917
0.000895852
0.0110576
0.001447
0.00133129
0.00111474
0.010895
0.00204132
0.000398884
0.00744785
0.000587689
-0.00715966
-0.0119124
0.000346251
0.000781803
0.00695491
0.000661373
-0.0069041
0.000413815
0.00084102
-0.0119067
-0.000214011
-0.00023284
0.000425308
0.000941049
0.000700108
0.00137688
0.00109309
-0.0438058
0.0106888
0.00106345
-0.0107898
0.000856608
0.0123043
0.00016629
0.000630712
0.000600626
0.00702344
-0.000428379
0.00240316
0.0444052
0.000560965
0.0112394
6.69876e-05
-0.0110168
-0.00030966
0.000773814
0.0115084
-0.01131
-0.000200253
0.000862248
0.0112675
6.99092e-05
-0.000170631
0.000577457
5.26286e-05
0.00047149
-0.00325394
-0.000147054
0.000236882
-0.000604675
-2.13153e-05
0.000265751
0.000724887
0.0454249
0.000816849
0.00130179
-4.9094e-05
0.00262804
0.00253998
-0.000529506
-0.000856693
-0.00136118
-0.000145214
0.175043
0.00223586
0.00255238
4.46566e-05
4.47427e-05
0.0441555
-0.000505534
0.000441451
0.000267963
0.000695255
0.000986185
5.92399e-06
-0.000338323
0.0126335
0.000574969
0.010919
0.000711225
0.0112438
0.000332052
0.0435689
-0.000121766
-0.000162837
0.0047413
-0.0441707
0.00294967
0.0432054
-0.000707338
-0.0455008
7.83779e-05
0.0435689
-0.000238382
0.0035489
0.0435383
0.00409832
-0.000447396
-0.0443981
-0.00361199
0.0435514
0.00360619
-0.000353535
-0.000106026
0.0445993
0.0439188
0.00454186
-0.0443572
0.0438826
0.00343436
0.0110184
0.0001525
-0.000164369
-0.0110272
0.000915001
5.33531e-05
-0.0109063
0.011397
-0.00027237
0.000884198
-0.000151469
0.0111024
0.000841875
-0.0113567
0.000255519
0.000823745
-0.0131515
0.0131824
0.00115376
-0.0129933
0.00124556
0.174392
0.00268412
0.00289687
0.00446407
0.000864456
-0.00123574
-0.00741057
0.0436971
-0.000473936
0.04435
0.0037045
0.0450947
0.17597
-0.00672191
-0.00160668
0.000322556
0.00283932
-0.00145974
0.175824
0.00281462
0.000460247
-0.00633334
0.00863456
-0.00225994
0.174608
-0.0071897
0.178095
-0.00211401
0.00261813
0.00255741
0.00218904
0.00211307
-0.180629
-0.00662378
0.0443228
0.00349172
-0.00055661
-0.044966
0.00312524
0.0444243
-0.000694349
0.00131517
-0.000226879
-0.00933098
-0.00342247
0.172677
0.00067442
0.000513013
0.00386463
0.00486555
0.00355369
0.00141454
0.000439346
0.0433241
0.00247059
-0.000166172
0.0446348
-0.0011096
0.000501784
0.00454185
0.0441107
-0.00176474
0.0448675
0.00386864
0.0041107
0.0443859
0.00429372
-0.00343202
-0.000226121
0.0436318
0.0444382
0.00181671
0.00142058
0.00123371
0.000603112
-0.0112708
-2.12302e-05
0.0113468
0.000887368
-0.000128737
0.0110891
0.000562356
0.000601884
0.0009749
0.0116499
0.000236675
-0.000249249
0.0432514
0.00123126
0.0014989
0.00115128
0.00141679
-0.0112399
-0.000203857
0.000216783
0.010865
0.00201274
-0.000258519
0.00014561
0.00199632
-0.0111113
-0.000204486
0.0109105
0.00164994
-5.54852e-05
0.0015259
7.92995e-05
0.0147271
0.000634912
0.0437268
0.000143265
-7.3283e-05
-0.000115307
0.17282
0.000625685
0.0026323
0.00223737
0.00391863
-0.00121234
-0.00638218
-0.000412582
0.00338271
-4.20551e-05
0.043481
-0.0428656
0.00381189
0.0443097
0.00298829
0.174351
-0.00188135
-0.00664135
0.175315
-0.00157303
-0.00585547
0.0435197
0.0431697
0.00126351
0.00157524
0.00157849
0.00117261
9.58021e-05
-0.0114947
0.00249508
0.0108297
0.0109915
-0.000226357
1.03907e-05
0.00396975
0.0432568
-0.000232541
0.00133973
-0.00745523
0.171585
0.000686774
0.00261485
0.000674145
0.00393256
0.00296669
0.000569168
-0.00350263
0.00417363
0.0433903
0.0432996
-0.000917309
0.00145291
-0.0423536
0.00385478
0.0438369
0.000699522
0.00435532
0.0430807
0.00340191
-0.006549
0.172445
-0.00261993
-0.00626805
0.173189
-0.175016
-0.00161656
0.000142183
0.0431447
0.00138888
0.00161592
0.00114271
0.000868066
-0.000144521
-0.0109572
-7.14376e-05
0.0108806
0.00172886
0.0108045
-1.84402e-05
0.00182638
0.00192405
0.0110769
-0.000133703
0.0019773
0.0111501
0.00898989
-0.00239344
0.0033692
-0.00161176
0.0090994
0.00417582
0.00229725
0.0161108
-0.0025895
-0.00199733
0.0133836
0.00555457
-0.000191283
-0.00171161
0.00943118
-0.00499067
0.00859569
-0.00469504
0.000156099
-0.000993927
0.0104764
0.00135968
-0.0005069
0.0113314
-0.00117533
-0.00174515
0.000212155
-0.000190777
0.0106668
0.0142505
-0.00148289
0.00393787
0.00581189
0.000317154
0.000170278
0.0110917
0.000422094
0.000420877
0.0101292
0.0113904
0.00218028
0.0136582
0.000682498
0.00767817
0.0428008
0.00434743
0.0107516
-0.000654425
0.000645881
0.00262355
-0.0109005
-0.000757875
0.000544467
0.01046
0.00288434
0.0110064
0.000175773
0.00267576
-0.00166858
0.00049616
5.57607e-05
0.0430201
0.00124504
0.000286059
0.00150916
0.0014826
0.000837128
0.000292147
-0.000713634
0.0107048
0.000441901
0.00208919
0.0105146
-0.000550986
0.00181697
-0.000858999
0.0108314
0.00183438
6.6556e-05
0.0109554
0.00218463
-0.000636863
0.00568191
-0.0109359
0.0108297
0.00198771
0.00217887
-0.000672747
0.00972665
0.00234718
0.0110218
0.00456841
0.0108589
0.00194656
0.0108682
0.00286753
0.0437687
0.000682948
0.000617834
0.00310396
-0.00184089
0.000982037
0.000754841
0.0445555
0.00296334
0.00115122
0.000894647
-0.0457784
-0.001925
-0.00215148
0.00329132
0.00245464
0.0430191
-0.00190407
0.042561
0.00243598
0.00265204
0.000507744
0.00201115
-0.00553316
0.00135712
0.169093
-0.00386163
0.00144577
0.00136022
0.00161193
0.0010653
0.00140455
-0.042458
0.00175357
0.0421718
-0.00113975
0.00155938
-0.005396
0.168947
0.00121659
0.00110518
0.00127892
0.00138131
-0.00183356
-0.00117337
0.00183273
0.0427137
0.00368262
0.0422422
0.00214311
0.00224635
0.0428908
0.00168831
-0.0013262
-0.0432981
-0.000771326
0.0423139
0.00159378
-0.0424652
0.0418059
0.00140199
-0.0418542
-0.000477877
-0.010957
-0.0105798
0.000995322
0.000886032
0.00116849
0.0427747
0.00115783
0.000656406
0.00136493
0.00111271
0.000908379
0.000843844
0.000779008
0.0424022
0.00478158
-0.0108724
-0.000876848
0.000887155
0.00140177
0.00086438
0.0107545
0.00123643
0.00100404
0.00148885
0.00125159
-0.00087106
0.0162586
0.000222011
0.00109204
-0.0149343
-0.0115329
0.00122657
0.001727
0.0110084
0.00144406
-0.0117619
0.00350387
0.0109309
0.00509178
-0.00687903
0.00075673
0.000822024
-0.00686004
0.00011436
-0.0109547
-0.000296066
0.00105033
0.0108889
-0.000296751
0.000393189
0.00112694
-0.0114122
-0.000120847
0.00114431
-0.000289798
0.00117872
-0.0110473
0.0129975
0.00152563
-0.0129275
0.00132144
0.00721104
0.000443107
9.2375e-05
0.000187906
-0.000713467
0.0441856
0.0011262
0.000624132
0.000596152
0.000202756
-0.000940667
0.0443769
0.00283484
0.0136402
0.000799586
0.0112529
0.000697783
7.03587e-05
-0.0113065
0.000766079
0.0113362
1.62531e-05
0.0110919
-6.33411e-05
0.000729364
-0.0132197
-0.000423468
0.00134031
0.0132354
0.0114507
-0.000287382
0.000845262
9.58028e-06
-0.000451635
0.000433268
0.000606277
-0.00128518
0.000402225
-8.46721e-06
0.00175684
0.000224087
0.0447006
0.00127912
0.00199051
0.000791083
0.000115936
-6.1554e-05
0.0115386
-0.000330317
0.00112081
-0.00040598
0.0116924
0.00104565
-0.000140416
0.0116173
0.000701838
0.0434594
0.000598333
-0.000545433
0.0026846
0.000806056
-0.000747414
0.002345
0.0435958
0.042705
-0.00212216
0.00285348
-0.00041444
-0.00336608
0.00308628
-0.000471443
0.0425995
0.0418084
-0.000369915
-0.000410463
0.0415469
0.00111646
0.00215218
-0.00267352
0.173264
0.00225061
0.00249251
0.00220375
-0.0439142
0.0438663
0.00237628
0.00261361
-0.0111298
-0.000253496
9.06695e-05
0.0112645
0.00046955
4.1041e-05
0.0109483
6.86803e-05
0.000607007
1.24186e-05
0.000696468
0.0114167
-0.000434723
0.000698949
1.73347e-05
0.00776867
0.0134176
0.000931532
0.0138383
1.94017e-05
0.0428822
-0.000347984
0.00487811
-0.0434768
0.0433061
-0.000423965
0.000281559
0.00594105
-0.0443635
0.0429125
0.00375232
-0.000414871
1.8257e-05
0.0433689
-7.73744e-05
0.00354526
0.0439948
0.00427772
-0.000547623
-0.0446806
0.0436439
0.00362588
-0.000503291
0.0447122
-0.000223317
-0.000125849
-0.0454903
0.00551753
7.14544e-05
-5.0087e-05
0.0446312
0.00349538
0.0115657
0.000102453
-0.000172377
-0.0115155
0.000934683
4.87096e-05
-0.0113349
0.0114657
0.000776145
-6.46233e-05
0.011664
0.000856935
-0.0114339
0.000975115
-0.0119897
0.0122435
0.000835284
-0.0118197
0.000903249
0.172587
0.000627281
0.00264207
0.00224724
0.00396266
-0.00141739
-0.00637219
-0.043726
-0.000510474
0.00339485
0.0434837
1.56033e-05
-0.0428439
0.00387404
0.0442386
0.00290405
0.174045
-0.00657198
-0.00206989
-0.00174749
0.0091879
0.175558
-0.00636365
0.00795751
-0.00198744
0.173676
-0.00608236
-0.04178
0.00327924
0.0417108
-0.000805882
0.00219266
0.000541959
0.00812832
-0.00290146
0.172525
-0.00656728
0.179272
0.002216
-0.00241564
0.00209494
0.00197678
0.00178671
-0.181647
-0.00539805
-0.000604349
0.0443088
0.00351595
-0.0451589
0.0445898
-0.000638757
0.00349812
-0.0454961
-0.000589162
0.0036506
0.042742
0.043086
-0.000619521
0.00364727
-0.000107313
0.00143071
-0.00754153
-0.00380511
0.00405731
0.000861319
0.00276195
0.00318761
0.000811081
0.000748135
0.170273
0.043456
0.00428226
0.00022651
0.0433224
0.00429411
0.0431527
-0.00103495
0.000642287
0.00521519
0.00156242
-0.0423192
-0.00215069
0.0437529
0.00402007
0.0428927
0.000670974
0.0047052
-0.000648539
0.0035765
0.0441064
0.0039704
0.00402341
0.0432401
0.0432684
0.001418
0.000969336
0.00152063
0.0019371
0.000199632
-0.0111452
0.00169041
0.0114741
-0.0111837
0.0110232
0.00157621
4.5171e-05
0.00129617
0.00114443
0.0112697
0.000648224
-0.000148732
0.000132147
0.0429319
0.00120107
0.000950116
0.00108986
0.00111845
7.25595e-06
-0.0109016
-2.97619e-05
0.0108787
0.00127665
0.0107929
-4.07768e-05
0.000137615
0.00147409
5.33777e-05
0.0108007
0.00109739
-7.64501e-05
0.0014614
-0.000220553
0.0104992
-0.0108362
0.00180859
-0.000177016
0.010634
-8.01503e-06
0.00394188
0.000487797
0.005959
-4.59161e-06
0.173786
0.00220968
0.000827923
0.00178808
-0.000298934
-0.00130831
-0.00417963
-1.04572e-05
0.0421524
0.00256092
0.0429712
0.0031597
-2.81409e-05
-0.000518599
-4.47867e-05
0.0427288
0.00304321
0.00328186
0.0436103
0.173368
-0.00223201
-0.00545205
0.173935
-0.0018745
-0.00517532
0.174741
-0.176222
-0.00140531
-0.00495385
0.0429907
0.0011559
0.000911388
0.000978401
0.00109653
-0.0108474
-0.000100864
0.00133782
0.0108025
0.000156249
0.0107356
0.00165076
0.0107239
0.00113677
-0.000259153
1.63955e-05
0.0427933
0.00386593
0.00101654
-0.000304564
-0.00434914
0.00260371
0.00108187
0.00188658
-0.000348298
0.000397756
0.000622566
-0.00454675
0.173525
0.0427089
0.00366983
-0.00149221
-0.0425707
0.0424137
0.000894852
0.00336913
0.0416894
0.00100643
0.00232301
0.00279853
0.0433424
0.000803965
0.0036792
0.000374003
0.0425424
0.00364356
-0.00467555
0.171098
-0.0030134
-0.00483486
0.171723
-0.0017145
0.000389489
0.0428112
0.00113146
0.000620217
0.00153121
0.00113491
0.0108527
3.07171e-05
-0.000130736
0.00151679
0.000217855
-0.0106255
0.00150733
0.0110125
2.32197e-05
0.0108442
0.00134581
0.00140585
-0.0109258
0.00208532
-0.000310982
0.0109469
0.00577257
-0.00240338
0.00845704
0.00348406
-0.00147356
0.00564939
0.0109716
0.00646351
-0.000101086
0.00282983
0.0140998
-0.00205956
0.00761412
-0.00135309
0.00977135
-1.38594e-05
-0.000207046
0.0104318
-0.000780742
-9.27018e-06
0.00971428
-0.000757175
-0.00865397