/*--------------------------------*- C++ -*----------------------------------*\
  =========                 |
  \\      /  F ield         | OpenFOAM: The Open Source CFD Toolbox
   \\    /   O peration     | Website:  https://openfoam.org
    \\  /    A nd           | Version:  12
     \\/     M anipulation  |
\*---------------------------------------------------------------------------*/
FoamFile
{
    format      ascii;
    class       volVectorField;
    location    "0";
    object      U;
}
// * * * * * * * * * * * * * * * * * * * * * * * * * * * * * * * * * * * * * //

dimensions      [0 1 -1 0 0 0 0];

internalField   nonuniform List<vector> 
77061
(
(-21.3868 -0.673648 0.327175)
(-22.4695 -0.638539 -0.287178)
(-21.4331 -0.118835 0.546174)
(-23.1299 1.10709 0.958356)
(-21.2819 -0.0103964 1.00572)
(-21.9151 -0.0734134 0.626309)
(-23.3048 -0.351816 0.268938)
(-24.8987 0.516258 -0.784356)
(-21.6031 -0.122034 0.316149)
(-21.2418 0.0385086 0.743755)
(-21.2127 -0.0628212 1.02376)
(-22.3614 0.64089 1.31775)
(-23.8654 0.444662 1.85275)
(-21.8101 0.326738 1.45065)
(-20.857 0.446435 1.00333)
(-20.9563 0.265574 1.27038)
(-21.3787 0.184774 1.06221)
(-22.2798 -0.53126 0.893814)
(-21.7048 -0.385988 1.08879)
(-21.2942 0.0964698 1.21269)
(-21.5085 -0.745255 0.407513)
(-21.6847 0.80567 1.06975)
(-22.5333 0.126254 0.766274)
(-22.1386 -0.240518 0.450454)
(-21.4266 0.183054 0.988104)
(-25.3108 -0.0538022 0.7364)
(-23.6385 -1.22046 0.867743)
(-25.9124 0.0170754 1.1309)
(-21.587 0.106445 0.287448)
(-21.3974 0.00985189 0.640996)
(-21.0635 0.00938855 0.999841)
(-21.0493 0.127468 0.713126)
(-20.9167 0.191327 1.03129)
(-21.5604 0.511205 1.54743)
(-21.5337 0.63751 1.70269)
(-24.4423 0.476456 2.07634)
(-22.6815 1.00234 2.84665)
(-23.2229 -0.271097 1.29704)
(-21.7931 0.320522 1.65902)
(-22.3155 1.77008 3.17728)
(-23.1488 1.51482 4.38278)
(-22.2748 1.0507 3.59394)
(-21.1715 0.990726 2.41082)
(-24.0738 2.35721 3.95377)
(-22.5089 1.11565 1.81816)
(-20.9704 1.06533 1.33468)
(-21.5358 1.54314 2.19527)
(-20.4851 0.395741 1.22196)
(-20.8798 0.325214 1.28705)
(-20.7686 0.618452 1.5453)
(-21.1797 0.0925817 1.28552)
(-20.9839 0.341958 1.39819)
(-20.6954 0.223484 1.02092)
(-21.1121 0.31816 1.05777)
(-22.6972 -0.376074 0.299298)
(-22.3187 0.551359 1.07792)
(-21.593 -0.199648 0.904306)
(-21.1625 -0.41074 1.10243)
(-22.0956 1.19601 1.61104)
(-23.5421 0.947006 1.44913)
(-22.704 -0.0364727 1.70412)
(-23.4734 -0.382304 0.539361)
(-22.1996 0.102634 0.338928)
(-21.7532 0.0897582 0.961425)
(-21.0917 0.175616 1.15962)
(-25.9232 4.15359 5.11811)
(-26.5271 0.26452 0.779244)
(-25.4243 3.15055 5.74903)
(-21.398 -0.0216527 0.625404)
(-21.1495 0.0209418 0.773009)
(-20.7257 0.244484 0.915914)
(-20.7421 -0.100184 0.545491)
(-20.8684 -0.191168 0.348617)
(-21.2319 0.79558 2.62519)
(-21.9485 0.246558 2.06094)
(-21.1007 0.520801 1.54207)
(-21.0473 0.398292 1.37934)
(-21.132 1.50565 2.40823)
(-20.8177 0.807562 1.25754)
(-24.4931 0.540705 5.74078)
(-25.0664 -0.18492 1.28542)
(-23.2608 0.246679 2.29952)
(-22.9751 0.902658 4.22655)
(-21.1327 2.04324 4.45577)
(-21.8782 1.99685 5.8542)
(-21.1518 1.50352 4.01546)
(-20.4149 1.78936 3.70054)
(-22.6206 2.89857 5.8781)
(-22.5003 2.04609 2.99911)
(-20.7054 1.70293 1.49871)
(-20.373 0.843187 1.10184)
(-21.5585 1.27494 1.28447)
(-20.8426 0.782465 0.912726)
(-21.4534 0.961081 1.31693)
(-20.8246 1.35726 1.55136)
(-21.5415 1.60959 1.86192)
(-20.2511 0.413006 1.2879)
(-20.2814 0.44878 1.24711)
(-20.7411 0.646426 1.55023)
(-20.6983 0.510181 1.12841)
(-21.1384 0.298901 1.33298)
(-20.8684 0.00561238 1.41606)
(-20.5556 0.369577 1.4375)
(-24.8149 0.114814 0.587666)
(-22.9516 1.05807 1.20918)
(-22.3037 0.0900665 0.744568)
(-21.4025 -0.447483 0.868062)
(-20.9633 -0.617089 1.09716)
(-22.0404 2.37275 2.28329)
(-23.7139 2.87127 3.19285)
(-22.7015 -0.149178 1.6275)
(-23.5233 0.170807 0.47189)
(-21.6837 -0.00463946 0.71057)
(-21.7621 -0.0792487 0.926265)
(-22.5662 -0.386483 1.77767)
(-23.4231 0.237868 0.893885)
(-21.2554 0.0893201 1.09789)
(-20.8374 0.481895 1.41921)
(-22.8672 5.3934 7.86033)
(-27.0675 2.99482 8.31125)
(-22.7506 2.65267 8.887)
(-21.1516 -0.0214981 0.766013)
(-20.9375 -0.0343094 0.835035)
(-20.5314 0.184266 0.723363)
(-20.4597 0.487537 1.22496)
(-20.5136 0.338388 0.866388)
(-20.6365 0.0683468 0.766605)
(-20.3876 0.935966 3.21709)
(-21.4124 0.355125 3.38118)
(-20.8079 1.01751 1.82298)
(-20.7552 0.463929 2.10662)
(-21.9599 -0.184191 2.01922)
(-21.2267 0.144507 1.69081)
(-20.6542 0.365192 0.836013)
(-20.7367 -0.00414257 0.829965)
(-20.5616 1.13763 1.64162)
(-21.1057 2.68867 3.09271)
(-20.3155 1.89499 2.59311)
(-21.6992 2.84618 3.54787)
(-20.1777 0.621484 1.01809)
(-22.7179 1.23087 6.99386)
(-25.9601 -0.0218843 4.76789)
(-25.1376 0.0321942 1.25674)
(-23.1735 0.38136 4.37061)
(-23.3033 -0.0823303 2.29497)
(-21.9741 1.0101 4.86718)
(-19.9885 1.73213 4.50265)
(-20.697 3.39932 5.44099)
(-20.145 2.0308 1.73124)
(-20.1979 1.10372 1.01495)
(-19.8356 2.10667 1.64769)
(-20.5777 2.88617 1.78067)
(-21.3422 2.37356 1.63814)
(-20.6226 1.55991 0.98823)
(-21.4329 2.96838 2.76849)
(-20.2528 0.850777 0.986352)
(-20.0499 0.598601 1.05138)
(-21.7649 1.43223 1.22209)
(-20.8368 0.963126 1.22771)
(-21.4733 0.692992 1.20248)
(-20.9021 1.27107 1.00271)
(-20.1809 0.409597 1.6375)
(-20.0123 0.302691 1.40987)
(-19.883 0.394256 1.0325)
(-20.584 0.537904 0.941752)
(-21.0518 0.159093 1.4944)
(-20.6997 -0.101685 1.5229)
(-20.3549 0.385853 1.4876)
(-25.4753 4.57344 3.839)
(-23.5416 0.612907 0.73346)
(-23.0223 3.15246 2.26308)
(-22.1806 -0.139848 0.570801)
(-22.3919 4.08775 4.67143)
(-22.0622 -0.579754 1.11396)
(-22.9077 0.130334 0.67248)
(-21.1578 -0.342104 1.19377)
(-22.0259 -0.394302 1.56537)
(-22.3768 0.705703 0.716869)
(-21.5237 -0.151639 0.941874)
(-21.3565 -0.153408 1.18436)
(-22.9649 1.51948 -0.196923)
(-21.8141 -0.089716 0.773368)
(-21.695 0.153313 -0.00185989)
(-21.261 -0.0819026 1.09077)
(-23.0119 -0.362515 2.4046)
(-24.708 0.534024 0.172551)
(-24.665 -0.51553 1.99638)
(-20.937 0.134968 0.98961)
(-20.4334 7.63156 9.27603)
(-20.5015 5.33834 11.2815)
(-20.3404 4.47279 6.85669)
(-22.3639 3.45904 9.23982)
(-20.6921 2.73098 7.36262)
(-21.0612 -0.121563 0.703228)
(-20.9387 0.0396171 0.833027)
(-20.4177 0.258412 0.628897)
(-20.4037 0.140167 0.560946)
(-20.3322 0.280229 0.896347)
(-20.2305 0.460896 0.877161)
(-20.0208 0.589139 1.36176)
(-20.4907 0.695585 1.97794)
(-20.4307 1.20771 1.90135)
(-20.4591 0.0539395 0.600954)
(-20.4218 0.114568 1.07667)
(-20.6364 -0.0659564 0.767325)
(-20.4626 0.363021 3.67055)
(-19.6656 0.951571 3.03649)
(-20.2483 1.12017 2.09049)
(-20.1816 0.579875 2.21295)
(-21.4114 -0.348938 3.39674)
(-22.0246 0.391149 5.48526)
(-20.8824 0.221496 2.32846)
(-21.5653 -0.494729 1.86698)
(-21.2296 -0.124815 1.69125)
(-20.842 0.0384294 1.4232)
(-20.1119 1.44156 1.5491)
(-20.3546 2.36999 2.43439)
(-19.5629 1.77352 2.55788)
(-20.5289 3.04711 3.72638)
(-19.3212 3.09367 3.62664)
(-19.1179 2.80296 3.08304)
(-19.7814 0.448401 0.906814)
(-19.8827 0.727921 0.960317)
(-19.813 0.864094 0.904523)
(-23.3512 0.555196 8.68231)
(-20.6211 1.37522 6.66168)
(-25.9634 0.0748257 4.82288)
(-23.17 -0.303696 4.38714)
(-20.4515 0.800544 4.65002)
(-19.217 1.56802 3.72991)
(-19.6298 2.97864 5.07791)
(-19.2024 2.44711 6.0989)
(-19.1502 1.28463 6.28321)
(-19.0266 1.20994 5.1443)
(-19.851 3.0107 1.54534)
(-19.5411 2.11845 1.58321)
(-19.9121 1.434 0.983538)
(-20.4987 3.1988 3.02583)
(-19.4138 3.11784 3.20795)
(-20.1562 1.26316 0.874607)
(-20.3189 2.21093 1.34343)
(-22.1761 4.19989 2.68431)
(-21.1137 3.6118 1.76575)
(-21.6813 2.66216 1.45176)
(-20.7704 1.92603 1.25694)
(-19.8449 0.522416 1.00847)
(-20.0729 0.899 0.677041)
(-19.9481 0.437209 1.08508)
(-22.0933 1.33367 0.965118)
(-20.7812 1.03469 1.22511)
(-21.4775 0.570959 1.16947)
(-20.9393 1.36125 0.651338)
(-19.8186 0.214583 1.81382)
(-20.25 0.437929 1.50334)
(-19.2874 0.103229 1.20981)
(-19.2297 0.37309 0.35561)
(-20.4196 0.68097 0.833293)
(-20.1128 0.44409 1.23446)
(-20.8774 0.973618 1.67823)
(-20.5063 0.015476 1.4197)
(-22.8717 6.37707 5.81241)
(-24.0562 0.394682 0.336514)
(-23.9292 3.7373 2.28145)
(-20.628 4.0742 4.52693)
(-23.1731 -0.433443 0.828292)
(-21.4667 -0.897337 1.59437)
(-22.5906 -0.910846 2.119)
(-23.9244 0.10243 0.165909)
(-23.7236 -0.874577 2.07899)
(-21.7897 -1.18761 2.58392)
(-22.5189 -0.740869 2.14091)
(-21.8437 -0.0654183 1.10368)
(-22.3205 0.480125 0.486039)
(-21.1174 -0.166994 1.15992)
(-21.1085 -0.302304 1.10111)
(-20.8198 -0.352412 1.32532)
(-21.3718 -0.614267 1.69424)
(-21.4981 0.159805 1.11659)
(-21.1808 0.176955 0.750342)
(-21.7623 0.617946 0.463346)
(-20.9389 -0.132094 0.98918)
(-22.7671 -0.876882 4.21933)
(-27.2581 -0.074199 0.765134)
(-24.5143 -0.542543 5.84538)
(-18.7137 6.78377 8.31579)
(-18.6097 4.46336 9.89807)
(-18.9613 3.90384 5.81412)
(-18.7174 1.44113 11.9686)
(-20.395 2.09659 8.84206)
(-20.7177 -0.243134 0.930583)
(-20.8721 0.195213 0.350784)
(-20.3514 0.286793 0.51222)
(-20.3387 0.199134 0.469368)
(-20.2181 0.327752 0.684611)
(-20.2459 0.0637669 0.417986)
(-20.2628 0.188897 0.649347)
(-20.0712 0.339787 0.948431)
(-20.1645 0.391164 0.774294)
(-19.9386 0.564128 0.818651)
(-19.6501 0.641806 1.02986)
(-19.7307 1.43675 1.94616)
(-20.09 0.819611 1.10208)
(-19.7305 1.24382 2.01074)
(-20.0232 0.138076 1.2216)
(-19.077 0.73314 2.04294)
(-19.4849 0.60483 2.52664)
(-20.5876 0.218582 1.66019)
(-20.3124 0.0770342 0.720572)
(-20.4588 -0.0523484 0.60121)
(-20.131 0.135801 1.12776)
(-20.421 -0.114568 1.07906)
(-20.8424 -0.475462 1.42019)
(-20.5271 -0.183957 0.727536)
(-19.6654 0.402861 3.54815)
(-20.4567 -0.369175 3.67064)
(-20.5485 0.329085 5.48188)
(-19.4077 0.471383 5.13283)
(-20.3263 0.234741 2.6005)
(-19.1431 0.898504 2.36687)
(-21.1559 -0.807663 2.58473)
(-22.0117 -0.377814 5.4908)
(-20.8796 -0.216804 2.33219)
(-21.9093 -1.04506 4.90009)
(-21.0725 -0.591189 1.54697)
(-21.0465 -0.390159 1.46213)
(-20.8419 -0.0297067 1.42628)
(-19.6434 1.44596 1.69913)
(-18.8828 2.6521 2.86125)
(-19.06 1.56596 2.13128)
(-19.7129 3.89283 4.33072)
(-19.7026 0.530022 0.638447)
(-19.6195 0.438583 0.886378)
(-19.7961 0.459777 0.819722)
(-19.7201 0.506558 0.841483)
(-19.9025 0.459507 1.23117)
(-19.748 0.802803 0.793352)
(-19.7288 0.947886 0.81636)
(-19.5119 0.75631 0.696293)
(-19.5963 1.44437 0.916146)
(-19.5658 0.976739 0.754396)
(-23.3419 -0.506394 8.68976)
(-20.6293 0.537025 7.33426)
(-17.703 2.63425 4.3169)
(-18.7166 0.668934 4.70549)
(-18.7365 1.31436 3.10096)
(-18.6265 2.49021 4.09738)
(-17.7407 2.1542 4.78303)
(-18.4056 2.31985 5.24068)
(-18.9774 1.69231 7.49408)
(-18.0559 3.17319 7.3581)
(-19.5452 0.560645 6.54896)
(-20.1366 4.03388 0.90074)
(-20.7089 4.29488 3.3121)
(-19.3494 2.70501 1.38563)
(-21.1009 5.50839 3.26139)
(-19.6359 4.90115 2.69036)
(-19.8187 4.09289 3.08078)
(-19.8748 1.76308 0.826899)
(-19.0924 1.88181 1.38394)
(-20.0879 1.49009 0.549015)
(-20.4672 2.5433 0.992537)
(-22.7208 5.82936 2.53377)
(-21.7463 4.20076 1.386)
(-22.3749 2.88081 0.943835)
(-20.8822 2.16408 1.16897)
(-19.5937 0.289257 1.24823)
(-19.5184 0.397608 0.74677)
(-20.9381 1.33679 0.391181)
(-20.6666 1.09591 0.987611)
(-19.8634 0.915193 0.141682)
(-22.0355 0.886223 0.59399)
(-21.1485 0.632721 1.13395)
(-18.3843 -0.390463 2.06881)
(-18.7031 -0.400114 2.10288)
(-19.1122 -0.0439632 1.70922)
(-19.2155 -0.423547 2.73235)
(-19.1808 0.274875 2.67653)
(-19.7429 0.181684 2.88058)
(-19.8364 0.5384 1.74894)
(-18.9371 0.150783 2.33185)
(-20.3437 0.56345 1.61549)
(-18.9336 0.52552 2.35218)
(-19.9039 0.245522 1.78051)
(-18.8762 -0.24309 0.519265)
(-18.583 -0.392237 1.76918)
(-18.8152 -0.583651 2.06446)
(-20.0999 1.10218 0.0490012)
(-19.3746 0.277387 -0.528235)
(-19.7155 0.659948 0.154322)
(-20.2494 0.993742 0.593237)
(-19.9208 0.617128 0.76208)
(-20.7287 2.26787 1.36074)
(-20.3535 0.411372 1.04473)
(-21.0752 7.98762 6.385)
(-20.629 5.57927 5.4525)
(-24.544 4.15825 2.10797)
(-22.299 -0.516947 1.40529)
(-23.2732 0.159848 0.344873)
(-23.9444 -0.993344 1.57122)
(-21.0904 -1.4931 2.34619)
(-20.755 -0.853073 1.22455)
(-22.6011 -1.29175 1.67156)
(-21.5811 -0.468459 0.960858)
(-21.6604 -1.54977 2.14289)
(-22.3317 -1.76568 3.31912)
(-25.6413 -0.417896 1.0798)
(-23.3296 -1.61719 4.4519)
(-21.6048 -1.07934 2.43937)
(-22.2313 -1.18609 3.50978)
(-21.9585 0.0946916 0.964512)
(-20.707 -0.651049 1.57244)
(-20.8352 -0.430333 1.29679)
(-21.4406 -0.221887 1.32126)
(-21.5409 0.378254 0.919767)
(-21.2003 -0.0534405 1.26162)
(-27.1805 -3.11785 8.64511)
(-22.665 -1.26651 7.07937)
(-17.275 8.77507 8.89385)
(-17.1882 6.23323 11.6409)
(-17.598 5.01545 6.46201)
(-17.2609 2.64682 10.6992)
(-18.2548 3.27699 4.97465)
(-19.3094 0.898795 9.44564)
(-18.7181 -1.33327 11.9319)
(-20.4507 -0.503387 1.22087)
(-20.4914 -0.332182 0.873346)
(-20.3031 0.278033 0.42672)
(-20.2988 0.233895 0.404426)
(-20.1794 0.32319 0.556208)
(-20.1834 0.150065 0.307371)
(-20.1935 0.233461 0.507439)
(-19.9908 0.375399 0.671114)
(-20.0632 0.0862339 0.470179)
(-20.2464 -0.0622437 0.417896)
(-20.1736 0.037069 0.234157)
(-20.0969 0.230091 0.687797)
(-19.8555 0.387466 0.80828)
(-19.8784 0.406974 0.597561)
(-20.1813 0.359521 0.688491)
(-19.7313 0.569878 0.672204)
(-19.2544 0.323259 1.65064)
(-19.2931 0.771631 0.849524)
(-18.7467 1.13847 1.50773)
(-18.4579 1.23285 1.49895)
(-19.2535 1.07039 1.71715)
(-19.4138 0.479035 0.762295)
(-20.1559 0.105473 1.88066)
(-19.56 0.32151 1.82704)
(-19.9152 0.328871 2.65346)
(-20.5859 -0.217755 1.66164)
(-20.1145 0.0911638 0.780899)
(-20.3122 -0.0761055 0.720494)
(-20.4018 -0.139888 0.561651)
(-20.13 -0.136792 1.1263)
(-19.822 0.159396 1.16003)
(-20.7339 0.00151397 0.85492)
(-20.4821 -0.69944 1.98338)
(-20.3289 -0.284753 0.893721)
(-20.408 -0.25921 0.630303)
(-19.6615 -0.411746 3.548)
(-18.9968 0.365498 2.70199)
(-20.3774 -0.95348 3.21141)
(-20.5411 -0.322251 5.48188)
(-20.323 -0.237479 2.60032)
(-19.0155 -1.24103 5.15637)
(-20.427 -0.804901 4.64342)
(-19.4029 -0.486596 5.13327)
(-18.5226 0.758886 1.97419)
(-20.7779 -1.03436 1.79859)
(-20.7313 -0.469068 2.11186)
(-20.5358 -1.81602 3.62844)
(-21.1512 -1.57975 3.99724)
(-20.618 -0.410591 0.828825)
(-19.2026 1.3258 1.3225)
(-18.6263 2.25983 2.38863)
(-17.678 2.97742 4.60699)
(-17.8102 3.83994 3.3981)
(-18.4458 4.30632 3.77543)
(-18.8474 3.54686 2.45)
(-17.9125 3.54126 2.75417)
(-18.9779 1.41254 1.83379)
(-19.1816 4.88453 4.64626)
(-19.5911 0.499704 0.451912)
(-19.535 0.532743 0.646315)
(-19.7467 0.396878 0.539706)
(-19.6045 0.64373 0.65616)
(-19.5038 0.474088 0.541749)
(-19.5257 0.65692 0.561429)
(-19.2629 0.453919 0.889161)
(-19.646 0.424671 0.848744)
(-19.7425 0.428087 0.829167)
(-20.0997 0.438849 0.714631)
(-19.9107 0.55465 1.11898)
(-20.0304 0.560685 1.04173)
(-19.479 0.514406 0.819254)
(-19.0647 0.393679 1.4646)
(-19.5705 0.80829 0.515561)
(-19.6287 1.03095 0.646674)
(-19.287 0.885579 0.524282)
(-18.7605 1.19844 1.47494)
(-19.4188 0.985316 0.614425)
(-19.1327 1.20759 0.700516)
(-19.3213 1.39519 0.780068)
(-19.3399 0.68833 0.322172)
(-19.5107 1.76703 0.753233)
(-19.4776 1.11458 0.554907)
(-20.616 -0.532883 7.32981)
(-17.7105 1.99106 3.64819)
(-17.2999 0.475008 5.77307)
(-18.711 -0.683006 4.7101)
(-18.4195 0.527141 3.76911)
(-17.9763 0.589327 6.38754)
(-17.4935 1.35833 5.43586)
(-18.1769 1.59693 6.14393)
(-18.549 1.06964 2.50112)
(-17.7495 2.69655 5.50028)
(-17.7696 3.01705 6.2523)
(-17.7722 2.30455 8.80758)
(-18.6241 0.665686 7.85829)
(-16.4584 4.90754 8.0913)
(-19.5433 -0.572736 6.55101)
(-20.7743 7.25412 3.04112)
(-19.2711 3.50077 0.898212)
(-19.7794 8.47047 2.45713)
(-19.1808 7.24573 1.2161)
(-19.5379 6.2042 2.05379)
(-20.5114 2.85842 0.680108)
(-22.6001 4.9186 0.826694)
(-20.1473 3.26037 -0.135721)
(-21.1558 5.96892 -0.287256)
(-19.835 5.17659 0.366751)
(-19.7121 3.56277 0.735183)
(-19.8254 2.01967 0.459262)
(-18.9253 2.45598 1.21706)
(-18.0466 3.94367 2.46747)
(-18.7427 4.30625 2.69553)
(-19.4701 8.1339 6.47396)
(-18.4517 6.25573 4.8971)
(-18.8682 1.58897 1.26693)
(-20.9836 2.31065 0.831883)
(-20.0011 1.58634 0.0406586)
(-23.212 5.1495 3.08499)
(-22.9321 2.25626 0.391744)
(-18.8201 0.0871966 1.0751)
(-19.248 0.31483 0.252371)
(-20.8687 1.41988 0.135168)
(-20.5225 1.28424 0.554877)
(-20.3858 1.41756 -0.0109931)
(-19.8225 0.789402 -0.475298)
(-20.7245 1.42901 -0.226255)
(-21.7188 1.04696 0.300025)
(-20.7372 1.46193 0.97601)
(-19.0082 -0.0814937 2.89044)
(-18.6876 -0.716686 2.16295)
(-19.6515 -0.00499843 4.43173)
(-18.7383 -1.15924 3.19731)
(-19.1768 0.368232 2.81903)
(-19.9753 0.577561 3.06189)
(-19.8454 0.699088 2.20732)
(-20.3701 0.582003 1.44845)
(-18.1765 -0.954779 0.378445)
(-18.6138 -0.312441 -0.461258)
(-18.5652 -0.783903 1.14024)
(-17.8165 -1.66823 0.707659)
(-18.3026 -1.37757 1.71319)
(-20.6339 2.82838 0.215975)
(-20.0695 1.05779 -0.585427)
(-20.1041 0.790754 -1.02163)
(-19.5973 0.177696 -1.1)
(-19.6473 0.537092 -0.491641)
(-19.7357 0.356446 -1.06702)
(-20.141 0.656859 0.0488598)
(-22.6172 -0.327508 0.958542)
(-25.4779 -0.221753 0.562715)
(-23.8776 -2.43825 4.08097)
(-21.7161 -2.75097 3.46386)
(-20.538 -1.16144 1.58899)
(-21.1236 -2.6364 2.98484)
(-22.4455 -2.14192 2.94066)
(-21.5245 -1.66835 1.76361)
(-20.3282 -1.92241 2.56745)
(-21.1586 -2.10896 4.35692)
(-20.8536 -0.997035 1.28981)
(-20.157 -0.745189 0.995138)
(-23.5196 -1.13974 1.38936)
(-21.7654 -0.775618 1.30211)
(-22.026 -1.2398 1.63248)
(-25.5181 -3.3781 6.11475)
(-21.9033 -2.11428 5.85105)
(-21.8723 0.459945 0.750781)
(-20.8382 -0.308373 1.43031)
(-20.6166 -0.842611 1.61456)
(-20.9805 -0.482523 1.27083)
(-20.5649 -0.228892 0.942439)
(-21.4456 -0.00363247 1.30949)
(-21.4968 0.781915 0.758002)
(-21.1725 0.143425 1.62393)
(-22.1262 -3.61193 9.38199)
(-20.5814 -1.40104 6.65962)
(-17.0109 6.90873 6.95151)
(-17.6362 4.27048 5.42816)
(-17.0755 0.957523 10.85)
(-19.2961 -0.872232 9.43938)
(-20.02 -0.594448 1.3501)
(-20.4172 -1.23009 1.87515)
(-20.2202 -0.498893 0.849118)
(-20.176 0.233578 0.300185)
(-20.2756 0.250885 0.361122)
(-20.2068 0.305027 0.562573)
(-20.2652 0.30935 0.432295)
(-19.8598 0.27639 0.397293)
(-20.0744 0.15979 0.216538)
(-20.1574 0.15932 0.147277)
(-20.1487 0.0952512 0.173625)
(-19.9506 0.196601 0.512733)
(-19.9155 0.489808 0.670603)
(-20.0644 -0.0821497 0.468443)
(-20.0576 0.31528 0.634476)
(-19.933 0.0910366 0.76248)
(-19.9301 0.0560304 0.333012)
(-20.0785 0.043259 0.263117)
(-20.2621 -0.189532 0.647676)
(-20.1865 -0.148997 0.303628)
(-20.1752 -0.0350429 0.23555)
(-20.1265 0.0225143 0.136607)
(-19.6325 0.272917 0.479772)
(-19.7709 0.382076 0.593121)
(-19.9487 0.324083 0.438255)
(-20.1817 0.332674 0.541068)
(-19.5936 0.472723 0.351851)
(-19.2518 -0.327471 1.64549)
(-18.3381 0.284097 2.27513)
(-19.1775 0.214351 1.16252)
(-18.7457 0.807212 0.819659)
(-19.354 0.322251 0.401409)
(-20.1539 -0.106334 1.87991)
(-19.5583 -0.32558 1.8256)
(-19.9128 -0.334654 2.65208)
(-20.1146 -0.090068 0.779374)
(-20.3352 -0.200108 0.467797)
(-20.0723 -0.34176 0.942142)
(-19.8217 -0.159359 1.1568)
(-20.0181 -0.141911 1.22053)
(-19.0748 -0.737739 2.04012)
(-19.5615 0.109799 0.813091)
(-20.2143 -0.339218 0.669027)
(-20.3312 -0.288659 0.526309)
(-19.661 -0.961775 3.03582)
(-18.9906 -0.374684 2.69799)
(-20.2451 -1.1422 2.06918)
(-20.0154 -1.77969 4.52881)
(-20.1723 -0.585841 2.20978)
(-19.1292 -1.31279 6.30103)
(-18.3882 0.364502 1.56454)
(-18.4404 1.8296 1.84781)
(-17.8619 3.10015 2.33847)
(-17.6562 3.82205 4.75218)
(-17.8654 4.6639 3.54705)
(-17.8898 5.20759 4.09798)
(-19.3836 0.616466 0.349418)
(-19.4513 0.687965 0.417132)
(-19.4427 0.434021 0.312244)
(-19.4747 0.528966 0.385396)
(-19.677 0.324485 0.327981)
(-19.5044 0.403097 0.200377)
(-19.3447 0.508056 0.595523)
(-19.5508 0.480387 0.604665)
(-19.6272 0.45112 0.620375)
(-19.8799 0.338649 0.45046)
(-19.5343 0.345335 0.489049)
(-19.7145 0.382509 0.487136)
(-19.4547 0.662218 0.588007)
(-19.3783 0.536099 0.434617)
(-19.4169 0.731557 0.455584)
(-19.0267 0.266394 0.738048)
(-19.3399 0.474076 0.914466)
(-19.0873 0.118069 1.11929)
(-18.8784 0.595771 0.899732)
(-18.9456 0.665798 0.463017)
(-19.8079 0.419551 0.884917)
(-19.4989 0.44337 0.949715)
(-20.0741 0.522591 0.99911)
(-19.4851 0.614894 1.46222)
(-19.7586 0.591692 1.31936)
(-19.1445 0.455244 0.624318)
(-18.6538 0.587753 1.83845)
(-18.6637 0.403492 1.29972)
(-18.7066 0.24272 1.2938)
(-18.7795 -0.0612538 1.63333)
(-19.5226 1.09055 0.385307)
(-19.4307 0.791208 0.124864)
(-19.1879 1.00768 0.370172)
(-19.1204 0.783184 0.322816)
(-19.3268 1.09695 0.457912)
(-19.0101 1.4504 0.561744)
(-18.9237 1.06668 0.43012)
(-19.2228 1.65416 0.662279)
(-19.2917 0.459953 0.0336689)
(-18.7299 0.577694 0.20084)
(-18.5382 0.875972 0.383202)
(-19.4568 2.03861 0.408882)
(-19.4024 1.19485 0.309912)
(-17.8337 1.51639 2.83437)
(-17.2102 0.809421 4.84162)
(-17.132 3.15041 3.678)
(-16.741 2.94226 4.84534)
(-16.4681 2.65949 4.34353)
(-16.556 3.12352 3.79995)
(-17.2859 -0.494314 5.78136)
(-17.0581 0.645285 6.80681)
(-19.225 -1.59496 3.74993)
(-18.4105 -0.539626 3.76464)
(-17.9757 -0.577581 6.39374)
(-17.4817 -1.3827 5.46092)
(-18.1827 -1.58574 6.16045)
(-18.3535 0.41366 2.95278)
(-17.0247 0.693249 7.65897)
(-17.182 1.7614 6.28949)
(-17.2722 2.00287 7.39597)
(-16.8675 3.32541 6.05299)
(-16.9799 4.14232 7.14445)
(-17.3644 0.842141 9.3218)
(-15.7319 2.81866 10.0721)
(-18.6202 -0.675591 7.85511)
(-17.4329 9.90741 6.75472)
(-18.7771 3.00367 0.830898)
(-18.5069 6.29033 1.75893)
(-17.8171 4.77539 2.08143)
(-18.5644 5.33471 2.55123)
(-17.6871 5.36855 1.68962)
(-19.1691 4.9367 0.491942)
(-18.3789 3.33247 0.623512)
(-19.2669 3.02988 -0.0577784)
(-18.5137 4.59552 0.552785)
(-22.0221 6.91085 2.9376)
(-19.7015 8.96712 1.41111)
(-18.998 6.91338 0.31278)
(-17.2936 9.85175 4.60917)
(-17.1435 8.14948 4.98887)
(-20.9768 3.03733 0.164198)
(-22.7194 5.93211 -0.358834)
(-20.3159 3.4834 -0.464615)
(-19.7704 2.02579 -0.0143424)
(-21.4514 5.80289 -0.846273)
(-20.1108 5.12547 -0.430509)
(-19.8197 3.34536 -0.12874)
(-18.6485 2.00337 1.01589)
(-18.6751 1.35677 0.814961)
(-21.0782 2.31963 0.310004)
(-21.0121 2.17354 -0.258371)
(-20.9043 2.78549 -0.391501)
(-19.9621 1.40156 -0.493031)
(-23.0295 2.11449 -0.128053)
(-18.3593 0.172863 1.10159)
(-17.9477 0.0540348 1.69055)
(-18.4036 0.103149 0.646635)
(-18.562 -0.0783445 0.384094)
(-18.0121 -0.593916 0.823366)
(-18.8361 -0.10928 0.863835)
(-18.4476 -0.28763 0.224423)
(-19.1762 0.245605 -0.337838)
(-18.7228 -0.00794139 0.206892)
(-20.3157 1.34484 -0.630322)
(-20.3957 2.51845 0.164191)
(-20.3315 1.07748 -1.17152)
(-20.6286 1.12801 -0.90778)
(-20.6455 1.28213 -0.622864)
(-19.8787 0.573652 -0.936275)
(-21.2563 1.16983 -0.321229)
(-18.8493 0.396265 3.33145)
(-17.6469 -0.379309 3.11907)
(-17.628 -1.38991 1.60291)
(-17.9976 -2.16536 6.58553)
(-20.3008 0.693172 5.17322)
(-17.3845 -3.1134 3.00305)
(-19.1275 0.795416 2.87778)
(-20.3143 0.808267 1.79917)
(-19.4106 0.872402 2.44336)
(-20.3102 1.26038 3.95776)
(-20.2689 1.44576 2.97431)
(-20.4183 0.540029 1.0294)
(-18.1626 -0.964383 -0.346351)
(-16.9415 -1.69779 0.593683)
(-19.1984 -0.0263974 -1.1805)
(-18.5081 -0.780023 -1.06351)
(-17.9128 -1.63724 -0.527105)
(-18.2572 -1.27697 -1.47109)
(-15.7891 -4.21573 1.01627)
(-20.7243 2.88162 -0.997749)
(-20.154 0.368595 -1.16842)
(-20.6819 1.9421 -1.98584)
(-20.193 0.184542 -1.19938)
(-19.894 0.202755 -1.36861)
(-20.1193 0.0658081 -1.54022)
(-19.8735 0.160991 -1.47284)
(-20.1629 -0.0764066 -0.906992)
(-20.2621 -0.451868 -1.38649)
(-22.6509 0.199711 0.473143)
(-26.0903 -4.7532 5.48627)
(-22.6073 -3.03079 5.47595)
(-20.6241 -3.28555 3.69664)
(-22.3315 -3.7945 4.49248)
(-20.6613 -1.70314 1.40541)
(-20.1224 -1.44697 1.51228)
(-21.4395 -2.9496 2.63976)
(-20.4 -2.51175 2.44023)
(-23.5488 -3.17744 3.19116)
(-21.9668 -2.42525 2.08039)
(-19.5778 -1.79439 2.537)
(-19.4342 -3.12133 3.57949)
(-19.1822 -2.79638 3.0214)
(-21.3089 -1.41172 1.22546)
(-20.6884 -0.703509 0.758948)
(-21.1827 -0.927984 1.27811)
(-20.6835 -1.46942 1.57839)
(-20.3068 -0.832761 1.06933)
(-19.8368 -0.827293 0.879074)
(-20.1772 -1.13836 0.972079)
(-19.142 -0.360515 1.18481)
(-19.9904 -0.620448 1.03907)
(-19.8926 -0.80274 0.953244)
(-19.8716 -0.723413 0.402714)
(-19.886 -0.493992 0.919734)
(-19.5895 -0.597678 1.21556)
(-24.5991 -0.278613 0.527261)
(-21.9265 -0.593026 1.30664)
(-22.5365 -1.2129 1.27535)
(-22.6853 -2.95289 8.92015)
(-20.6793 -0.357162 1.42937)
(-20.5183 -0.640694 1.13736)
(-20.187 -0.506559 1.19768)
(-20.8771 -0.605827 1.23706)
(-20.405 -0.509631 1.33563)
(-21.2025 -0.362647 1.33048)
(-20.9737 -0.084394 1.80322)
(-20.2941 -2.15662 8.82222)
(-16.3113 8.23201 6.48594)
(-16.8764 5.54031 5.73167)
(-17.0646 -0.965448 10.8496)
(-19.6538 -0.642141 1.02142)
(-20.0954 -0.833287 1.08564)
(-19.7349 -1.24807 1.99411)
(-19.7382 -1.43191 1.92096)
(-19.4811 -0.61121 2.52276)
(-19.9502 -0.566101 0.807116)
(-20.1442 -0.394742 0.561266)
(-20.137 0.199754 0.250388)
(-19.7949 0.313685 0.342003)
(-20.2073 0.272156 0.48791)
(-19.9032 0.124265 0.310257)
(-19.7115 -0.113114 -0.0867457)
(-19.5136 0.26586 0.747296)
(-19.0301 0.51201 0.770884)
(-19.5699 0.529354 0.432562)
(-20.0106 0.125415 0.199656)
(-20.0953 0.162148 0.271283)
(-20.1021 0.125996 0.163862)
(-19.8019 0.233364 0.295854)
(-20.0845 0.105726 0.109247)
(-20.1212 0.0668146 0.110399)
(-19.387 0.210417 0.238052)
(-20.0615 -0.310481 0.630376)
(-19.9334 -0.0884041 0.760649)
(-20.0991 -0.229451 0.68423)
(-20.0809 -0.156569 0.207417)
(-19.9292 -0.0486755 0.329424)
(-20.0817 -0.0356284 0.263541)
(-19.674 -0.106268 0.0203032)
(-19.7503 -0.00429067 0.588413)
(-19.9146 0.0237735 0.192635)
(-19.6333 0.467281 0.814146)
(-19.7042 0.149586 0.407661)
(-19.9887 0.0213931 0.216909)
(-20.0781 0.0197812 0.156835)
(-20.1935 -0.237212 0.498793)
(-20.1611 -0.158203 0.141725)
(-20.2617 -0.313401 0.414927)
(-20.2914 -0.234987 0.402798)
(-20.1564 -0.0931757 0.175473)
(-20.128 -0.0231492 0.14111)
(-20.0538 0.0186548 0.069645)
(-19.5818 0.197196 0.508857)
(-19.8309 0.25064 0.323249)
(-19.7347 0.333521 0.25633)
(-20.0155 0.289705 0.36916)
(-19.5531 0.322529 0.153391)
(-19.1342 -0.908512 2.36647)
(-18.3248 -0.302109 2.26824)
(-18.5083 -0.760707 1.96373)
(-19.1799 -0.218134 1.14419)
(-19.1775 0.143978 0.577049)
(-17.9185 1.19343 0.961898)
(-18.2684 1.47645 1.15703)
(-18.2693 1.08945 0.589688)
(-18.9501 0.493881 0.339677)
(-19.5133 0.190663 0.0356277)
(-19.8591 -0.385096 0.801736)
(-19.9988 -0.380255 0.660741)
(-19.5619 -0.108201 0.807634)
(-19.517 0.105182 0.500979)
(-20.1706 -0.328019 0.502313)
(-20.288 -0.278202 0.425547)
(-20.7438 -2.8533 7.48902)
(-20.8261 -3.63237 5.70554)
(-19.6455 -3.05102 5.18353)
(-19.2234 -2.51588 6.1562)
(-18.958 -1.74236 7.49896)
(-17.5323 0.465639 2.39504)
(-18.396 -0.379754 1.48618)
(-17.8516 1.20383 1.96623)
(-17.7297 0.25743 1.837)
(-18.0327 0.94507 1.48966)
(-18.5743 0.224139 0.664649)
(-17.9437 2.46726 1.77192)
(-17.4873 4.2767 1.84897)
(-16.7316 3.84033 4.16263)
(-16.494 3.49144 3.7545)
(-16.9588 4.68422 4.95544)
(-17.2593 5.5122 3.33619)
(-17.0347 6.59196 3.92777)
(-19.2862 0.693824 0.257532)
(-19.3293 0.565696 0.184988)
(-19.3573 0.737666 0.3469)
(-19.3482 0.503821 0.221191)
(-19.4918 0.363165 0.232324)
(-19.4067 0.445746 0.159942)
(-19.3746 0.530722 0.314378)
(-19.5018 0.325897 0.334271)
(-19.7959 0.278566 0.314124)
(-19.5256 0.520214 0.639037)
(-19.4492 0.0142856 -0.0963701)
(-19.6479 0.239984 0.134223)
(-19.4324 0.263048 -0.0793944)
(-19.3716 0.397392 0.0984826)
(-19.3668 0.318528 0.076064)
(-19.148 0.658711 0.554122)
(-19.1963 0.809667 0.127602)
(-19.2188 0.311743 0.468001)
(-19.2554 0.225711 0.86873)
(-19.3498 0.435402 0.584246)
(-19.5964 0.400145 0.642072)
(-19.4245 0.379619 0.616045)
(-19.2922 0.218538 0.540116)
(-19.2528 0.374321 0.532631)
(-19.3885 0.414114 0.395751)
(-19.4661 0.352309 0.398124)
(-19.2857 0.66215 0.411739)
(-19.3005 0.334678 0.323886)
(-19.2722 0.711247 0.38504)
(-19.3108 0.272511 0.736873)
(-19.296 0.884133 -0.038319)
(-19.3145 0.755879 0.299534)
(-18.8534 0.398494 0.579962)
(-19.0177 0.330517 0.76725)
(-19.0445 0.541038 1.07002)
(-18.9037 0.543132 0.978477)
(-18.9225 0.278215 0.626892)
(-18.9363 0.410488 0.577763)
(-18.586 0.35788 0.701365)
(-18.7043 0.351135 0.729773)
(-19.6214 0.415853 1.06777)
(-18.9464 0.350715 0.844281)
(-19.9695 0.535778 1.3405)
(-18.7877 0.827883 1.89139)
(-19.0749 0.900653 1.76511)
(-18.7971 0.374927 1.45985)
(-19.1319 0.531171 1.39141)
(-19.4168 0.653176 1.83265)
(-19.2015 0.789059 1.70456)
(-18.8754 0.405733 1.4812)
(-18.7707 0.546632 1.42642)
(-18.9628 0.53246 0.342132)
(-19.166 0.344307 0.630228)
(-18.7442 0.0789674 0.429171)
(-19.0348 0.491342 0.0585977)
(-17.4724 0.330135 1.74882)
(-18.146 0.283154 1.03539)
(-19.4473 1.09293 0.05861)
(-19.106 0.470118 0.0937559)
(-19.3965 0.712323 -0.297128)
(-18.9548 0.333514 0.103433)
(-19.1155 1.0938 0.196923)
(-19.0613 0.882678 0.259545)
(-19.2589 1.18576 0.253782)
(-18.9213 1.64807 0.336906)
(-18.862 1.23521 0.418847)
(-19.1551 1.89339 0.396235)
(-18.6204 0.625165 -0.0889105)
(-19.4222 0.318152 -0.331652)
(-18.9881 0.737012 0.21164)
(-18.8587 1.01983 0.375097)
(-19.4575 1.98357 -0.0108702)
(-19.3621 1.2085 0.0300971)
(-17.4107 0.58732 3.44437)
(-16.8183 2.27213 3.06208)
(-17.1925 -0.815202 4.81773)
(-16.0933 0.762102 6.30334)
(-16.3048 2.04811 5.94834)
(-16.4593 1.74028 5.27341)
(-16.1604 0.595005 5.63966)
(-16.15 3.46526 5.69814)
(-16.4617 3.23858 4.77625)
(-17.044 -0.637746 6.82518)
(-16.1466 0.799432 7.73418)
(-17.7273 -2.69718 4.35438)
(-18.7251 -1.32828 3.12556)
(-18.6201 -2.57836 4.1884)
(-17.7716 -2.18685 4.81991)
(-18.4213 -2.33214 5.2889)
(-18.3346 -0.439234 2.94355)
(-17.0252 -0.691019 7.67388)
(-17.1808 -1.7762 6.35562)
(-17.3049 -2.02068 7.42094)
(-15.6301 0.75128 8.7059)
(-16.1136 2.01769 6.98132)
(-15.8351 2.62856 8.99703)
(-15.8081 4.38095 6.88527)
(-15.2567 5.41877 8.09838)
(-17.3657 -0.871379 9.33727)
(-16.0101 0.99998 10.3215)
(-18.4738 2.40634 0.677031)
(-18.4618 3.22131 0.17546)
(-16.6084 8.4482 4.0883)
(-18.8766 7.3633 0.96065)
(-17.3573 6.28163 3.02877)
(-18.2243 6.11276 0.988809)
(-19.3671 5.10125 -0.246116)
(-18.7977 3.22453 0.0590949)
(-19.3468 3.36427 -0.24498)
(-18.9665 4.75598 0.013843)
(-24.2619 8.19896 1.8775)
(-18.3195 8.86486 -1.14936)
(-19.159 6.73871 -0.960113)
(-22.6517 3.32162 -1.04496)
(-20.3612 3.18906 -0.922536)
(-19.7778 1.86745 -0.488155)
(-21.4731 5.22254 -1.46218)
(-20.301 4.7987 -1.14138)
(-19.908 3.1432 -0.671547)
(-18.503 1.62581 0.756729)
(-22.4131 2.07973 -0.599602)