/*--------------------------------*- C++ -*----------------------------------*\
  =========                 |
  \\      /  F ield         | OpenFOAM: The Open Source CFD Toolbox
   \\    /   O peration     | Website:  https://openfoam.org
    \\  /    A nd           | Version:  12
     \\/     M anipulation  |
\*---------------------------------------------------------------------------*/
FoamFile
{
    format      ascii;
    class       volVectorField;
    location    "0";
    object      U;
}
// * * * * * * * * * * * * * * * * * * * * * * * * * * * * * * * * * * * * * //

dimensions      [0 1 -1 0 0 0 0];

internalField   nonuniform List<vector> 
79729
(
(-31.1635 -0.897009 -0.178042)
(-31.2757 -0.918295 -0.186987)
(-31.1469 -0.474202 -0.400486)
(-31.435 -0.9757 -0.20439)
(-31.2551 -0.476391 -0.422566)
(-31.121 -0.203105 -0.282927)
(-31.0824 -0.160087 -0.720697)
(-31.7384 -1.16136 -0.270568)
(-31.5585 -1.16247 -0.644423)
(-31.3715 -0.515303 -0.439328)
(-31.2138 -0.237689 -0.263729)
(-31.2314 -0.610938 -0.7053)
(-31.0943 0.206157 -0.235215)
(-31.0638 0.00867789 -0.620833)
(-30.6491 -0.173645 -0.807786)
(-31.9274 -1.22391 -0.844967)
(-31.9002 -1.22145 -0.984859)
(-31.5194 -0.557806 -0.596003)
(-31.5691 -0.928405 -1.31037)
(-31.3981 -0.744745 -0.892559)
(-31.3071 -0.277392 -0.287872)
(-31.2916 -0.336985 -0.562407)
(-31.1705 0.181271 -0.283298)
(-31.2073 -0.288601 -0.62134)
(-31.0744 0.470691 -0.390279)
(-31.0439 0.146946 -0.451296)
(-31.0631 0.215118 -0.224399)
(-30.8656 -0.276826 -0.117086)
(-30.6373 -0.563694 -1.02058)
(-30.9574 0.152938 -0.466484)
(-30.7714 0.481636 -1.58077)
(-31.0022 0.0665423 -1.0352)
(-29.7326 -0.661626 -0.388367)
(-31.2473 -0.340972 -0.686668)
(-30.6543 -0.242569 -0.438728)
(-31.9907 -1.33304 -1.175)
(-32.0404 -1.11341 -1.75965)
(-31.6276 -0.626393 -1.03254)
(-31.8799 -0.902813 -1.5513)
(-31.5442 -0.695153 -1.17051)
(-31.4343 -0.322425 -0.351112)
(-31.2713 -0.442447 -0.855797)
(-31.3843 -0.818619 -1.85684)
(-31.3562 -0.596418 -1.19434)
(-31.7396 -1.47146 -1.07976)
(-31.2696 -0.534511 -1.10727)
(-31.2841 0.167777 -0.309938)
(-31.2399 -0.218706 -0.578268)
(-31.1559 0.455609 -0.422535)
(-31.1066 0.110868 -0.64598)
(-31.0801 0.917495 -0.173611)
(-31.0244 0.314815 -0.639354)
(-31.0438 0.773965 -0.746731)
(-31.0376 0.49287 -0.355803)
(-31.0264 0.138829 -0.497579)
(-31.0712 0.24398 -0.193336)
(-30.8532 0.0536686 -0.924573)
(-30.895 0.520414 -0.23785)
(-30.8863 0.411744 -1.45194)
(-31.1079 -0.0685342 -1.01145)
(-30.8587 -0.137466 -1.24014)
(-31.1102 -0.198356 -1.05812)
(-30.9569 0.242765 -0.649592)
(-30.9606 0.0151242 -0.835599)
(-30.8576 -0.0358729 -1.52613)
(-30.9561 0.300629 -0.976709)
(-31.1269 -0.0196446 -0.892882)
(-31.019 -0.137963 -1.26394)
(-30.6666 0.241253 -1.80987)
(-31.171 -0.213281 -0.896696)
(-30.9575 -0.25338 -1.10279)
(-31.9774 -1.3854 -2.12838)
(-31.7515 -1.14095 -1.9759)
(-31.6448 -0.625088 -1.39748)
(-32.1573 -0.665368 -2.32336)
(-31.6114 -0.762026 -1.61479)
(-31.5777 -0.386897 -0.494266)
(-31.3024 -0.360082 -1.19119)
(-32.2831 -1.23309 -1.37332)
(-31.5756 -0.410917 -1.935)
(-31.4908 -0.594906 -1.6945)
(-31.2923 -0.442018 -1.20371)
(-31.4351 0.189893 -0.37104)
(-31.2961 -0.226278 -0.70603)
(-31.0748 -0.227363 -1.75849)
(-31.5644 -1.01576 -1.90525)
(-31.1226 -0.753088 -1.31051)
(-31.201 -0.943679 -0.574579)
(-31.2951 0.44907 -0.508972)
(-31.2119 0.0508885 -0.658146)
(-31.1756 0.927896 -0.182457)
(-31.0728 0.415669 -0.698265)
(-31.1419 0.691187 -0.82668)
(-31.067 1.0917 -0.588193)
(-31.0345 0.937575 -0.170592)
(-31.0016 0.594664 -0.952547)
(-31.0073 0.443 -0.567249)
(-30.9921 0.750172 -0.747362)
(-30.9902 0.719225 -1.01384)
(-31.0374 0.523047 -0.354459)
(-31.0512 0.167855 -0.340346)
(-30.7732 -0.0689628 -0.926679)
(-30.8004 0.158162 -1.23357)
(-30.8631 0.0190456 -0.939037)
(-30.9198 0.124424 -0.849547)
(-30.9104 0.34844 -1.10798)
(-30.9212 -0.0449618 -1.41643)
(-30.8515 -0.358505 -0.0104606)
(-30.6289 -0.384407 -0.99355)
(-30.6781 0.626821 -0.320259)
(-30.7011 -0.197103 -1.17993)
(-30.6842 -0.0448606 -1.34522)
(-30.7975 -0.0762302 -1.0668)
(-30.7575 0.346241 -0.549507)
(-30.9648 0.312643 -0.826423)
(-31.0175 0.0931366 -0.308564)
(-30.8993 0.223259 -0.89572)
(-31.2608 -0.16305 -1.09454)
(-30.8955 -0.181234 -1.6752)
(-30.8885 -0.200162 -1.5914)
(-31.2357 0.0147061 -2.15411)
(-30.8224 -0.443957 -0.697031)
(-31.0833 -0.0970117 -0.854525)
(-31.0284 -0.185674 -1.12493)
(-31.7716 -1.33641 -2.67006)
(-31.557 -0.720006 -2.02044)
(-32.1231 -0.784496 -3.25165)
(-31.2817 -1.31046 -2.02702)
(-31.483 -0.514326 -1.9613)
(-31.7831 -0.381125 -0.74942)
(-31.2669 -0.446677 -1.52875)
(-32.9556 -0.694785 -2.23186)
(-31.793 -0.312057 -2.50362)
(-31.5854 -0.417897 -1.93284)
(-31.3079 -0.53424 -1.65296)
(-31.6091 0.266695 -0.535664)
(-31.3281 -0.214649 -0.840555)
(-31.8994 -0.730177 -2.09015)
(-31.2281 0.375107 -2.68659)
(-31.5152 0.465858 -0.643399)
(-31.3063 0.0468332 -0.784816)
(-31.0425 0.13388 -2.22423)
(-30.6214 0.239734 -1.68032)
(-31.6877 -1.00523 -1.92597)
(-31.2707 -0.33297 -2.14733)
(-30.7007 0.310936 -2.06547)
(-31.3462 0.972478 -0.203976)
(-31.1563 0.289749 -0.861811)
(-31.2965 0.744562 -0.913958)
(-31.1982 1.13234 -0.640297)
(-31.0602 0.522158 -0.943306)
(-31.1041 0.718169 -1.225)
(-30.9966 1.17046 -0.616511)
(-31.0314 0.919689 -1.11318)
(-31.0282 0.971082 -0.173057)
(-30.9709 0.582797 -0.837331)
(-30.9441 1.01298 -0.423794)
(-31.0207 0.352682 -0.560171)
(-30.9247 0.840151 -1.12658)
(-30.982 0.856677 -0.715382)
(-30.8544 0.417447 -1.56016)
(-30.7059 0.102453 -1.09926)
(-30.7085 -0.356132 -1.67733)
(-30.6828 0.0142643 -0.861114)
(-30.8496 0.188788 -0.922425)
(-30.5978 0.0148612 -1.26214)
(-30.8479 0.174134 -0.843837)
(-30.7748 0.0388101 -1.07791)
(-30.7836 -0.00714823 -1.40387)
(-29.7257 -0.236563 -1.67032)
(-30.9616 0.51082 -0.152183)
(-30.9192 0.394948 -0.986192)
(-30.9714 0.328807 -1.28799)
(-30.7576 0.182025 -1.41062)
(-31.0116 0.173926 -1.81499)
(-30.6552 0.0784146 -1.32319)
(-30.5761 0.0611229 -1.2204)
(-30.5261 -0.537611 -0.478082)
(-30.4974 0.0193071 -1.04366)
(-30.7555 -0.365626 -2.07047)
(-30.6059 -0.0389346 -1.34743)
(-30.6548 -0.0936412 -1.61037)
(-30.7617 0.150179 -2.08586)
(-30.1217 0.166805 -1.40212)
(-30.9951 0.255326 -0.549466)
(-30.6122 0.192343 -1.52687)
(-30.7282 -0.149162 -2.05142)
(-30.725 0.154088 -1.70704)
(-31.1957 0.158037 -2.77437)
(-31.2485 -0.428604 -1.83946)
(-31.2515 -0.773936 -1.12674)
(-30.963 -0.240945 -1.65302)
(-30.4772 -0.224794 -0.88107)
(-30.9948 -0.0011256 -1.55995)
(-31.3906 -0.742832 -2.42956)
(-31.7959 -0.529831 -4.23168)
(-31.4537 -1.42663 -2.93854)
(-31.5321 -0.431527 -2.67394)
(-31.824 0.109142 -2.95322)
(-33.0668 0.233789 -3.83265)
(-31.6785 -1.88938 -1.54561)
(-31.2089 -0.475709 -2.17285)
(-31.7446 -0.177198 -1.71211)
(-31.1263 -0.332956 -1.9354)
(-31.8457 0.337209 -0.660216)
(-31.33 -0.1373 -1.25489)
(-32.4183 -0.331884 -2.38795)
(-31.3292 -0.16347 -1.80967)
(-31.6864 0.539071 -0.961778)
(-31.4288 -0.0401417 -0.937768)
(-32.0093 -1.11729 -1.99923)
(-31.4678 -0.20322 -2.36124)
(-31.6913 1.08499 -0.255978)
(-31.3712 0.385084 -1.14726)
(-31.4985 0.683657 -1.13087)
(-30.7563 0.457861 -2.81454)
(-30.5132 0.454157 -2.10805)
(-31.2946 0.997849 -3.34881)
(-30.0816 0.430625 -1.54779)
(-31.5179 -0.387102 -2.51629)
(-30.683 0.773415 -2.27447)
(-30.1649 0.585538 -1.79021)
(-31.1697 0.156782 -2.3292)
(-30.4741 0.272638 -1.6585)
(-30.9543 0.22343 -2.33195)
(-30.6264 0.884125 -2.5882)
(-31.4156 1.13133 -0.673078)
(-31.1647 0.565705 -1.17154)
(-31.2664 0.598132 -1.22039)
(-31.2065 1.10383 -0.993075)
(-30.9309 1.22227 -0.944779)
(-30.9746 1.18097 -0.600335)
(-30.918 0.897953 -1.56566)
(-31.0261 1.52199 -0.912949)
(-30.9053 0.301839 -1.70174)
(-30.9768 0.667964 -0.884455)
(-30.9085 0.853229 -0.993784)
(-30.781 0.63816 -1.53704)
(-31.0887 0.869272 -1.52279)
(-30.9942 0.200031 -1.7756)
(-30.5106 0.106807 -1.9408)
(-30.8644 0.0964859 -2.38869)
(-30.7355 0.998047 -1.12726)
(-30.4857 -0.0380276 -1.0144)
(-30.6025 -0.118062 -1.2141)
(-30.6415 0.450617 -0.465975)
(-30.7778 0.585232 -0.274551)
(-30.5858 -0.0512483 -0.993521)
(-30.4636 -0.211191 -1.38598)
(-30.4319 -0.1745 -1.37182)
(-30.5815 0.57118 -0.890401)
(-30.7716 0.470912 -1.44301)
(-30.5086 -0.401505 -2.20952)
(-30.6913 -0.00799613 -1.61901)
(-30.5803 0.0307845 -1.56023)
(-30.91 1.13588 -0.363245)
(-30.9398 0.0839892 -1.67285)
(-30.7795 0.162002 -1.64971)
(-31.2958 0.483779 -1.24592)
(-31.1121 0.917768 -0.627403)
(-31.1989 0.0234072 -2.14988)
(-30.7503 0.166304 -1.76732)
(-31.3939 0.292442 -1.09431)
(-31.466 0.128022 -1.14776)
(-31.3478 0.52175 -1.32602)
(-30.4462 -0.102648 -1.38249)
(-30.488 0.404471 -1.94632)
(-30.2392 0.0634833 -1.16506)
(-30.4347 0.137968 -1.14912)
(-30.4807 0.380954 -0.882513)
(-30.4987 0.0641953 -1.53795)
(-30.4088 0.0178079 -1.85891)
(-30.4688 -0.491581 -0.985919)
(-29.5874 -0.21713 -2.26946)
(-29.5395 0.00634662 -2.27156)
(-30.0725 0.370685 -1.55059)
(-30.3704 0.814481 -2.27706)
(-30.2247 0.373198 -1.2823)
(-30.4839 0.228903 -2.16128)
(-30.4407 0.130445 -2.34448)
(-30.9699 -0.397392 -2.42021)
(-31.0497 -0.558929 -1.86266)
(-31.1233 -0.489437 -2.29344)
(-30.8617 0.301051 -3.31107)
(-30.3229 -0.298547 -2.40181)
(-30.7443 -0.194776 -1.69671)
(-30.7768 -0.0452877 -1.49953)
(-31.3302 -0.270565 -3.04749)
(-31.153 -0.672694 -2.71297)
(-31.5536 0.437049 -3.87346)
(-32.2998 0.545441 -5.01376)
(-31.4055 -0.736025 -4.32374)
(-31.2735 -1.55483 -3.22707)
(-32.7047 0.375309 -3.63074)
(-31.1516 -1.5244 -2.37432)
(-31.1482 -0.76422 -2.09427)
(-31.5545 -0.0513006 -2.00912)
(-31.0036 -0.390798 -2.32984)
(-31.2176 -0.132849 -1.68178)
(-31.887 0.231172 -1.76342)
(-31.7225 0.544609 -1.3332)
(-33.2108 -1.17387 -1.89986)
(-31.6679 0.342821 -2.67692)
(-31.9677 1.1139 -0.739362)
(-31.6234 0.718591 -1.50264)
(-31.7988 -0.554148 -2.60361)
(-31.7827 1.26818 -0.838132)
(-31.4433 0.597565 -1.64999)
(-30.2791 0.881781 -2.03768)
(-30.2702 0.795856 -3.0774)
(-31.1181 0.43662 -4.11087)
(-31.1109 0.775181 -2.6741)
(-30.7971 1.59581 -4.03776)
(-31.0637 -0.25865 -3.45168)
(-31.6948 0.761378 -3.16121)
(-30.0821 0.775357 -1.68233)
(-29.7191 0.783692 -1.35827)
(-31.8109 -0.372052 -2.37223)
(-30.4165 1.50515 -2.42805)
(-31.2971 1.02753 -2.61341)
(-30.5406 1.7614 -2.89408)
(-30.7002 0.911412 -1.71808)
(-31.2675 1.33825 -2.73824)
(-30.0078 0.644052 -1.7215)
(-31.3362 0.638867 -2.54132)
(-30.5317 0.567205 -2.19658)
(-31.0818 0.087558 -2.40853)
(-30.7199 0.79264 -2.01141)
(-31.4697 0.84696 -1.28943)
(-31.2488 1.44324 -0.875661)
(-30.8917 1.06699 -1.14395)
(-30.8026 1.09642 -1.50293)
(-30.897 1.56621 -0.897296)
(-30.9309 1.26724 -1.49035)
(-30.7621 1.11909 -1.6293)
(-30.5309 0.216272 -1.73383)
(-30.6043 1.26578 -1.23322)
(-30.6349 0.400312 -2.39087)
(-31.3341 0.673895 -1.82908)
(-31.2039 1.10791 -1.53683)
(-31.0062 -0.173043 -2.25897)
(-30.5464 -0.26591 -1.6727)
(-31.5782 0.495259 -1.99304)
(-31.0459 0.655067 -1.23293)
(-31.1625 -0.387883 -2.67027)
(-30.2653 -0.172704 -1.82212)
(-30.4511 0.156647 -1.98549)
(-30.9267 0.661819 -2.02266)
(-30.7285 0.723264 -1.93293)
(-30.2416 -0.0810872 -1.1546)
(-30.5369 -0.499458 -1.92518)
(-30.3726 -0.14064 -1.05571)
(-30.4468 0.0829265 -1.41753)
(-30.1741 -0.361375 -1.23641)
(-30.3943 -0.365005 -1.30819)
(-30.136 -0.382522 -1.51706)
(-30.3893 -0.818732 -2.33092)
(-30.7129 -0.194462 -1.78635)
(-30.4721 0.188089 -0.938757)
(-30.5136 -0.142155 -1.52858)
(-30.359 -0.0753728 -1.74438)
(-30.715 -0.00601181 -2.02621)
(-31.3482 0.438143 -1.60971)
(-31.1954 -0.221154 -2.74454)
(-31.2417 0.742318 -1.10266)
(-31.2933 0.354233 -1.78946)
(-30.4987 -0.0679505 -1.94276)
(-31.2798 0.0144344 -1.7889)
(-31.0387 0.220004 -2.13326)
(-30.8662 0.338666 -1.99995)
(-31.1396 0.138908 -1.87636)
(-30.3548 0.0759853 -2.36747)
(-30.3643 -0.348599 -0.759328)
(-30.2761 0.119372 -1.48744)
(-29.9514 0.105569 -1.18572)
(-30.1898 0.603989 -2.1721)
(-30.1287 0.229872 -1.13263)
(-30.2734 0.257502 -0.988623)
(-30.2805 0.141678 -2.03096)
(-30.011 -0.0744971 -2.00069)
(-30.0819 0.0211697 -1.83813)
(-29.7114 0.543024 -1.47427)
(-30.1702 0.278914 -1.19579)
(-30.1858 0.574468 -2.23543)
(-29.9148 1.23305 -2.51803)
(-29.8878 0.494168 -1.15055)
(-30.0488 0.204735 -2.43451)
(-30.7562 -0.349391 -2.65087)
(-30.3657 0.591855 -3.58285)
(-30.627 -0.324328 -2.29486)
(-30.5296 -0.135212 -2.71235)
(-30.9102 -0.718141 -2.91442)
(-32.2562 0.763598 -5.14621)
(-32.0791 -0.503853 -4.74991)
(-31.0288 -0.272337 -5.16175)
(-31.388 -1.81638 -3.51196)
(-34.4984 0.642074 -3.85985)
(-29.8302 -0.34594 -1.92586)
(-30.6352 -1.76151 -1.92304)
(-31.0498 -0.973977 -2.1314)
(-31.6987 -0.0977157 -1.90008)
(-30.7562 -0.178526 -2.07446)
(-31.0273 -0.0259508 -2.27769)
(-31.8765 0.392768 -2.09335)
(-31.4839 0.490804 -2.01872)
(-32.1424 1.17712 -1.13508)
(-31.6186 0.621571 -1.934)
(-32.2392 0.249448 -3.04632)
(-32.0262 1.19163 -1.49619)
(-31.5464 0.405154 -1.91701)
(-31.9855 0.448393 -2.99647)
(-31.8377 1.01455 -1.45669)
(-29.9246 1.05396 -2.36483)
(-30.1828 0.859318 -4.31752)
(-30.4249 0.0557242 -3.7852)
(-29.7239 1.04272 -2.97227)
(-30.6053 0.971359 -4.33351)
(-29.9708 1.97117 -4.19295)
(-30.3958 1.32072 -3.12935)
(-30.7423 -0.0710615 -3.68423)
(-31.6395 0.653358 -5.69731)
(-31.4873 1.57652 -3.74956)
(-31.0191 1.61054 -4.19379)
(-32.7579 0.854679 -3.30747)
(-29.8951 1.32522 -1.59743)
(-30.0113 1.18644 -1.63733)
(-29.6028 1.47888 -1.52605)
(-29.3197 0.959781 -1.10016)
(-29.3722 1.08386 -1.25019)
(-29.4565 0.504379 -0.999594)
(-29.9089 1.79195 -2.63769)
(-30.0524 2.81787 -3.16998)
(-30.2287 1.5785 -1.84572)
(-30.9516 2.15395 -3.234)
(-29.1103 2.47768 -3.0388)
(-31.4962 1.04102 -2.75204)
(-30.7273 1.68705 -2.40792)
(-30.8184 1.34484 -2.26133)
(-31.5323 1.90426 -2.93109)
(-31.6214 1.49909 -0.993208)
(-30.8404 1.72397 -0.993863)
(-30.7666 1.32988 -1.57411)
(-30.889 1.69948 -1.376)
(-30.6879 1.52304 -1.64369)
(-30.3489 0.402635 -2.18189)
(-30.491 1.01564 -2.15179)
(-30.5717 0.958984 -2.07932)
(-31.5927 1.02362 -1.7515)
(-31.283 1.60655 -1.35007)
(-30.4959 -0.476805 -2.08217)
(-31.5381 0.381121 -2.55874)
(-31.2553 -1.08995 -3.37231)
(-31.782 -0.0536749 -3.08244)
(-31.7659 0.248055 -2.67927)
(-31.2847 0.0285164 -1.8035)
(-30.7307 -0.506698 -2.80741)
(-30.0225 -0.561558 -1.50803)
(-30.6264 -0.314028 -1.95456)
(-32.04 0.730653 -2.26011)
(-31.1711 0.276707 -2.01115)
(-31.4244 0.0891283 -2.27956)
(-29.9068 -0.176096 -2.32268)
(-30.3724 -0.828349 -1.05009)
(-29.7278 -0.208535 -1.99411)
(-30.2363 -0.33669 -1.98379)
(-29.8873 -0.324741 -2.1079)
(-30.0668 0.161177 -2.33796)
(-30.0542 0.0400528 -2.26945)
(-30.0211 -0.105122 -1.96217)
(-30.4222 0.442235 -2.17739)
(-30.2821 -0.549442 -2.58074)
(-30.6278 0.158187 -2.05297)
(-30.1313 0.480944 -1.45922)
(-31.0113 0.931857 -2.17704)
(-30.707 0.954643 -2.36047)
(-29.9558 -0.117812 -1.17493)
(-30.3899 0.310604 -0.736325)
(-30.2672 -0.180444 -1.46282)
(-30.1985 -0.652518 -2.16343)
(-30.1344 -0.235868 -1.09975)
(-30.0786 -0.366669 -0.913954)
(-29.9004 -0.481429 -1.12869)
(-30.495 -0.43365 -1.11251)
(-30.4838 -0.608825 -1.8185)
(-30.2843 -0.360167 -1.64707)
(-29.7372 -0.548163 -1.45097)
(-30.2028 -0.305757 -1.20323)
(-30.5023 -0.279414 -2.14593)
(-30.1946 -0.574125 -2.20226)
(-29.9521 -1.19453 -2.44744)
(-30.2817 -0.171839 -2.01359)
(-30.0967 -0.0665005 -1.81178)
(-30.4192 -0.109805 -2.31912)
(-30.8851 0.232598 -2.41702)
(-31.0397 0.521983 -1.7853)
(-31.1321 0.389727 -2.26146)
(-30.8125 -0.429375 -3.30144)
(-30.1828 -0.0385713 -2.07333)
(-30.2936 -0.0137506 -1.73633)
(-30.5087 -0.10771 -2.28284)
(-30.5426 0.135162 -2.09501)
(-30.6525 0.196437 -1.95673)
(-31.0976 0.642867 -2.15192)
(-30.0466 -0.0403742 -1.57897)
(-29.6834 0.133039 -1.03287)
(-29.8383 0.176377 -1.54078)
(-29.7691 0.744814 -2.20086)
(-29.9844 -0.189636 -0.884362)
(-29.8647 0.310564 -1.04687)
(-30.0127 0.334287 -0.90886)
(-30.0038 0.280933 -1.77972)
(-30.0905 -0.0330137 -2.08149)
(-30.3119 -0.217628 -1.90318)
(-30.45 -0.302011 -1.94496)
(-30.6718 -0.106825 -2.19231)
(-29.8286 0.0924891 -1.89571)
(-29.3597 0.633966 -1.14678)
(-29.7268 0.309409 -2.109)
(-29.8126 0.570939 -2.25875)
(-29.3509 1.49446 -2.32567)
(-29.4895 0.948359 -2.06009)
(-29.6368 0.565126 -1.15141)
(-29.5725 0.60007 -0.9389)
(-29.7745 0.424813 -0.920541)
(-29.6841 0.375595 -2.52474)
(-30.1468 0.159645 -2.99384)
(-30.172 -0.178334 -2.34638)
(-29.9146 0.990568 -3.78491)
(-30.3359 -0.415213 -2.95703)
(-30.6977 -0.655689 -3.20274)
(-33.6666 2.71361 -6.82576)
(-31.7392 0.0525892 -6.41246)
(-30.7767 -0.601208 -4.76695)
(-31.2966 -1.31662 -4.54016)
(-30.1697 -0.608051 -1.40359)
(-31.3919 0.904936 -1.34229)
(-31.1167 -0.385004 -1.85544)
(-30.567 -1.63367 -2.37053)
(-30.6392 -0.764802 -2.25485)
(-31.3099 0.59156 -2.99593)
(-31.9296 1.06826 -2.15065)
(-31.4275 0.635667 -2.4665)
(-32.1405 1.24878 -1.92862)
(-32.3925 -0.588791 -3.11357)
(-32.0268 0.721531 -2.41542)
(-32.3339 1.50241 -1.18583)
(-29.512 1.26983 -1.95474)
(-29.8923 1.12913 -4.23173)
(-30.2193 1.56781 -5.60729)
(-30.2141 0.366148 -3.621)
(-29.3059 1.28934 -2.58501)
(-29.5929 1.67814 -3.85231)
(-29.6401 1.43577 -2.84402)
(-29.2343 2.40708 -3.96149)
(-29.9532 0.45538 -3.97127)
(-31.0549 0.939636 -5.81117)
(-29.9383 2.06769 -4.20055)
(-30.4472 1.89853 -4.31008)
(-32.1477 2.97771 -7.12955)
(-32.2704 2.33155 -4.49146)
(-31.3987 2.96929 -4.79941)
(-33.3691 1.08406 -3.27991)
(-29.8413 1.58808 -1.5829)
(-29.9885 1.63669 -1.32827)
(-29.5095 2.0977 -1.45504)
(-29.2459 1.67292 -1.3512)
(-28.9469 0.959138 -0.708883)
(-28.9747 1.20346 -0.933207)
(-29.2412 0.611748 -0.676394)
(-29.1822 1.23791 -1.047)
(-29.1685 1.3125 -2.0113)
(-28.9455 1.60863 -1.20449)
(-29.2543 1.35107 -1.03458)
(-29.2326 0.756122 -0.928294)
(-29.1522 0.534107 -0.852498)
(-29.4098 3.00463 -2.69442)
(-29.3009 1.99355 -2.34884)
(-30.7287 3.55644 -3.68474)
(-30.4278 2.29641 -2.38496)
(-31.2622 2.8504 -3.34324)
(-29.7607 2.5439 -2.94677)
(-32.242 1.24476 -2.77224)
(-30.8451 2.13337 -2.23231)
(-30.8975 1.7662 -2.44111)
(-32.4074 2.02912 -2.9742)
(-30.6779 1.90739 -1.50036)
(-30.568 2.0571 -1.60593)
(-30.2188 0.576233 -2.31632)
(-29.9165 0.830838 -1.87446)
(-29.9882 -0.159055 -2.87552)
(-30.1013 0.811372 -2.56809)
(-30.3131 1.31836 -2.73493)
(-30.4619 1.32327 -2.31917)
(-31.9928 1.62056 -1.51892)
(-30.6298 -0.834791 -2.16647)
(-30.2893 -0.881311 -2.02101)
(-32.1257 0.814905 -2.75889)
(-31.3328 0.185413 -3.00899)
(-31.6551 -0.926093 -3.19604)
(-31.0424 -0.967364 -2.74282)
(-32.6289 -0.0475183 -4.09311)
(-31.476 -0.504117 -4.08209)
(-32.4016 0.268215 -3.0059)
(-31.6395 -0.527959 -2.62148)
(-30.2721 -0.812227 -3.02154)
(-30.9474 -0.382847 -4.21495)
(-30.7803 -1.57153 -3.92887)
(-30.9738 0.15725 -3.46602)
(-29.6701 -0.507666 -1.61211)
(-29.6619 -0.698331 -1.50338)
(-29.5385 -0.410684 -1.45617)
(-29.1792 -0.579674 -1.90612)
(-29.5794 -0.792827 -0.68508)
(-28.5449 -0.221212 -1.85446)
(-29.7433 -0.717633 -1.31838)
(-30.0572 -0.798104 -1.61659)
(-30.0741 -0.538141 -1.72673)
(-31.0508 -0.434342 -2.12447)
(-30.444 -0.0133869 -1.32329)
(-30.8521 -0.0736433 -2.1653)
(-30.5529 -1.08499 -2.5497)
(-32.6257 0.802561 -2.24472)
(-31.3712 0.519926 -2.45571)
(-31.7345 0.338272 -2.39963)
(-29.9744 -0.312391 -2.60945)
(-29.4086 0.023422 -2.64433)
(-29.6019 -0.255632 -2.209)
(-29.3326 -0.14824 -1.9391)
(-30.3842 -0.488864 -2.2335)
(-29.9552 -0.366962 -1.96792)
(-29.5918 0.107376 -2.45284)
(-29.7297 -0.19154 -1.89285)
(-30.3132 0.361361 -2.16761)
(-30.2244 -0.163796 -2.00272)
(-30.6264 0.0482443 -2.13156)
(-29.9892 0.00330767 -1.99854)
(-31.0727 0.525934 -2.27581)
(-30.6142 0.707664 -2.33808)
(-29.6892 -0.137382 -1.02772)
(-29.8439 -0.230689 -1.53112)
(-30.0514 0.0449771 -1.56311)
(-29.7823 -0.784324 -2.19841)
(-29.9937 0.190324 -0.843008)
(-29.8772 -0.314644 -1.02952)
(-30.0785 -0.339118 -1.08259)
(-29.8169 -0.43783 -0.980597)
(-28.5028 -0.503193 -1.78765)
(-29.4211 0.0508175 -0.715589)
(-29.5994 -0.604498 -0.922003)
(-30.5892 -0.474658 -0.915837)
(-30.4303 -0.549358 -1.71288)
(-30.5106 -0.563544 -1.68653)
(-29.5973 -0.571452 -1.66194)
(-29.6816 -0.530337 -1.62138)
(-29.365 -0.631067 -1.13179)
(-30.0153 -0.305248 -1.73204)
(-29.7444 -0.330488 -2.08992)
(-29.835 -0.605129 -2.23061)
(-29.3781 -1.45839 -2.2656)
(-29.517 -0.923238 -2.03681)
(-29.6624 -0.610546 -1.17778)
(-29.95 -1.04385 -2.26732)
(-29.8401 -0.128938 -1.88462)
(-30.0613 -0.225627 -2.39044)
(-30.3788 -0.69311 -3.55728)
(-30.5267 -0.0598442 -2.70129)
(-30.7012 0.479391 -2.63508)
(-30.6015 0.357582 -2.19507)
(-31.0528 0.582652 -2.87347)
(-29.8944 -0.0993252 -2.21749)
(-30.2171 -0.132509 -2.41352)
(-30.3274 0.300052 -1.94698)
(-30.2276 -0.119861 -2.06797)
(-30.4008 0.671464 -2.34781)
(-30.9435 0.447189 -1.44834)
(-30.8303 0.747458 -2.22058)
(-31.0087 0.719977 -1.67793)
(-31.7544 1.8817 -1.99913)
(-29.6259 0.129494 -0.588325)
(-29.5487 -0.0836173 -0.755728)
(-29.614 0.00667202 -1.50533)
(-29.4008 0.238004 -1.38967)
(-29.336 0.837429 -1.96673)
(-29.657 0.35935 -0.824039)
(-29.7814 0.393678 -0.750963)
(-29.9503 0.328649 -0.743563)
(-29.8683 0.0430442 -2.22343)
(-30.2027 -0.221805 -2.36908)
(-30.2225 -0.211658 -1.94142)
(-30.309 -0.463875 -2.23588)
(-30.1944 -0.229112 -2.06889)
(-29.5602 0.108793 -1.86724)
(-29.2677 0.583774 -0.618237)
(-29.443 0.426259 -1.66551)
(-28.897 1.08482 -1.5385)
(-29.1072 0.669611 -0.752121)
(-28.9009 1.5168 -1.80992)
(-29.157 0.809726 -1.85297)
(-29.184 0.460634 -1.82062)
(-29.2685 0.639385 -0.61439)
(-29.5199 0.45706 -0.643029)
(-29.3011 0.498793 -2.35281)
(-29.9215 -0.176171 -3.19975)
(-29.4636 1.30699 -3.76933)
(-29.6904 0.386159 -3.19055)
(-29.6879 0.13083 -2.36857)
(-30.3085 -0.346717 -3.68932)
(-30.5139 -0.565311 -3.47456)
(-33.0908 4.71927 -7.00839)
(-30.7985 -0.0781674 -5.79252)
(-30.7196 1.96091 -8.45949)
(-30.5212 -0.0534878 -4.88703)
(-30.8421 -0.813614 -4.79462)
(-31.391 -1.37891 -5.19178)
(-30.6439 0.675418 -1.42923)
(-30.5711 -0.330678 -1.79368)
(-30.346 -0.608485 -1.64169)
(-34.4495 6.17503 -2.16791)
(-31.0909 1.79806 -2.53786)
(-30.52 -1.82596 -2.20512)
(-30.3578 -0.722035 -2.48916)
(-32.0278 1.16807 -2.82988)
(-33.9677 0.031809 -3.60379)
(-32.5887 0.673486 -2.59871)
(-29.6521 1.72148 -5.09672)
(-29.8589 2.44505 -7.29038)
(-28.8868 1.36561 -2.43626)
(-28.4506 2.24897 -3.4894)
(-29.3931 0.921915 -3.91874)
(-29.1557 1.5628 -3.66088)
(-27.7383 2.45512 -3.40565)
(-28.8202 1.51658 -2.31186)
(-29.7023 0.790754 -3.55246)
(-30.1952 0.641432 -4.7342)
(-29.3688 2.14955 -4.61532)
(-29.4762 2.24796 -3.87628)
(-29.0867 2.32288 -3.74477)
(-30.7789 2.63289 -7.42512)
(-29.71 3.20542 -4.6171)
(-30.4446 3.17234 -5.21494)
(-33.2259 5.37679 -7.36625)
(-32.9083 3.99181 -4.87793)
(-31.6234 4.23601 -5.33319)
(-35.5261 -0.100928 -4.33888)
(-29.7568 2.26459 -1.30971)
(-30.0027 2.06742 -0.736272)
(-30.9857 2.66535 -2.04763)
(-31.0847 2.30653 -2.31676)
(-29.3909 2.44106 -1.15974)
(-29.0892 2.13037 -1.31814)
(-28.7653 1.17978 -0.67875)
(-28.751 0.885104 -0.220874)
(-28.9754 0.569707 -0.363092)
(-28.8599 1.37643 -1.40171)
(-28.5999 1.32875 -1.36247)
(-28.6674 1.58292 -0.882792)
(-28.5589 1.09071 -0.525989)
(-28.4323 1.45378 -0.707209)
(-28.9844 0.836347 -0.629034)
(-28.8266 1.4101 -0.750975)
(-29.0075 0.572741 -0.554931)
(-29.0931 0.656416 -0.637516)
(-29.1241 0.867098 -0.720538)
(-29.0503 1.43485 -0.887989)
(-28.9067 1.87925 -2.00636)
(-28.7356 2.02045 -1.10268)
(-29.1428 1.54477 -0.742029)
(-29.0836 0.907408 -0.805604)
(-28.9842 0.671327 -0.713891)
(-28.1536 3.9086 -2.63751)
(-28.9799 2.98087 -2.4797)
(-28.5861 4.99837 -3.11345)
(-29.3667 3.13904 -1.61868)
(-29.9088 4.8412 -3.16666)
(-29.6115 4.54431 -4.94144)
(-30.7017 4.40197 -5.65322)
(-30.9289 4.42431 -3.56621)
(-30.6299 2.92798 -2.44037)
(-31.7982 3.69577 -3.37025)
(-30.3827 3.28656 -2.59631)
(-32.9452 1.93994 -2.44812)
(-32.9207 3.22015 -3.13364)
(-30.0192 0.513952 -2.3971)
(-29.5865 0.366454 -2.54336)
(-29.7604 0.274718 -2.38509)
(-29.797 0.725329 -2.68819)
(-30.012 0.978498 -2.848)
(-30.2576 0.823293 -2.48115)
(-30.4306 -1.55711 -2.35159)
(-30.5785 -1.80972 -2.77229)
(-31.1901 -1.53268 -2.56458)
(-31.2179 -1.0432 -2.35911)
(-30.6259 -0.785735 -1.43836)
(-31.8378 0.46699 -4.34173)
(-33.1292 1.19861 -2.5869)
(-32.4358 -1.33692 -3.31504)
(-31.4267 -1.8089 -3.82469)
(-34.2759 -1.33267 -4.44692)
(-32.0459 -0.924866 -5.99401)
(-33.2125 -0.533365 -3.14446)
(-32.1447 -0.820709 -2.80055)
(-30.1932 -0.704229 -4.17278)
(-30.4861 -0.0956833 -3.78766)
(-29.7588 -1.0706 -2.95511)
(-30.5022 -1.06001 -4.36258)
(-29.9815 -1.71827 -3.92066)
(-30.3703 -1.569 -3.32021)
(-30.7199 0.00340513 -3.47243)
(-31.0948 0.619758 -4.40508)
(-30.9822 -0.903156 -6.06471)
(-30.9198 -1.7282 -4.07565)
(-29.4149 -0.367196 -1.71982)
(-29.4159 -0.45348 -1.49836)
(-29.4551 -0.533985 -1.63236)
(-29.4856 -0.819528 -1.28755)
(-29.5925 -1.00132 -1.25063)
(-29.4771 -0.341914 -1.51138)
(-29.1218 -0.230913 -1.83096)
(-29.0161 -0.570336 -0.958646)
(-29.3435 -0.956799 -1.07734)
(-29.9134 -1.34728 -1.54047)
(-29.6394 -1.39675 -1.48645)
(-29.4124 -1.01537 -1.19175)
(-29.9899 -1.15767 -1.53212)
(-29.9274 -0.629892 -1.62388)
(-31.1605 -0.754031 -2.19491)
(-30.4389 -0.57252 -1.83463)
(-30.9142 -0.293518 -2.13146)
(-30.6034 -0.805207 -1.972)
(-31.5765 0.190574 -2.4294)
(-31.9455 -0.363082 -2.64754)
(-30.1984 -0.448264 -2.89739)
(-29.4812 0.0422629 -3.12928)
(-28.2402 0.313156 -2.48391)
(-29.7931 -0.0515395 -3.51047)
(-29.114 -0.0708932 -2.34234)
(-29.6474 -0.27771 -2.26729)
(-28.7259 0.00227806 -1.5435)
(-30.5128 -0.559621 -2.24706)
(-30.1082 -0.477802 -2.23233)
(-29.7243 0.198817 -3.28544)
(-28.5871 0.222767 -2.14782)
(-29.302 -0.229341 -1.50786)
(-30.1964 0.273186 -2.09328)
(-30.1526 -0.282134 -1.64611)
(-30.6223 -0.0756869 -2.0735)
(-29.8194 -0.0770727 -2.10036)
(-31.1292 0.409652 -2.23827)
(-30.521 0.654248 -2.17788)
(-29.6322 -0.126498 -0.584995)
(-29.5613 0.0841643 -0.728175)
(-29.6181 -0.0027904 -1.49956)
(-29.4035 -0.262877 -1.38706)
(-29.3414 -0.865391 -1.98789)
(-29.6713 -0.356679 -0.812634)
(-30.1531 -0.391181 -1.00769)
(-29.5345 -0.283568 -1.39453)
(-29.7524 -0.375813 -0.775628)
(-29.5063 -0.48035 -0.6352)
(-29.3535 -0.65572 -0.600293)
(-30.6187 -0.621652 -1.51921)
(-30.6437 -0.482461 -0.621052)
(-30.751 -0.676413 -1.40238)
(-29.7952 -0.568655 -1.54937)
(-29.9311 -0.615166 -1.43239)
(-30.6302 -0.641405 -2.2576)
(-30.1833 -0.537366 -2.20924)
(-28.868 -1.54622 -1.82483)
(-29.1236 -0.675577 -0.742555)
(-28.8925 -1.16158 -1.54827)
(-29.1891 -0.818334 -1.83088)
(-29.4741 -0.44292 -1.62605)
(-29.1942 -0.464809 -1.8804)
(-29.2963 -0.535228 -0.489591)
(-29.6935 -0.397522 -2.47581)
(-29.2058 -1.3108 -1.95063)
(-29.3367 -1.27588 -2.58422)
(-29.5457 -1.2656 -1.9901)
(-29.9414 -1.73005 -2.5635)
(-29.5681 -0.131581 -1.86468)
(-30.1265 -0.399753 -2.96282)
(-30.1905 0.182201 -2.32447)
(-30.353 0.561291 -2.95133)
(-29.9298 -1.06037 -3.7627)
(-30.6928 0.571882 -3.17679)
(-30.8157 0.720403 -2.90834)
(-31.3528 1.14373 -3.76467)
(-29.5699 -0.174988 -2.34535)
(-30.0675 0.497926 -2.56547)
(-29.9878 -0.000887575 -2.29474)
(-29.9184 -0.0353301 -2.63673)
(-30.1195 0.317557 -2.20075)
(-30.3362 0.650508 -2.66911)
(-30.644 0.276241 -1.74859)
(-30.3504 0.294727 -1.94617)
(-30.5486 0.724523 -2.44445)
(-31.3574 2.88613 -1.60428)
(-29.7389 0.149897 -0.436061)
(-28.0144 0.789763 -1.42208)
(-28.7463 0.355754 -0.94904)
(-29.1556 0.0618796 -1.16461)
(-28.9808 -0.0622219 -0.347291)
(-29.61 0.369962 -0.482826)
(-29.2824 0.190409 -1.83051)
(-29.604 0.422665 -0.497151)
(-29.7481 0.342383 -0.550282)
(-29.5608 0.133784 -2.32394)
(-30.0545 -0.367304 -2.52311)
(-29.9582 -0.147464 -2.30598)
(-29.8756 -0.127183 -2.64689)
(-30.0959 -0.149389 -2.20009)
(-30.3164 -0.32788 -1.9479)
(-28.6444 1.43425 -1.1107)
(-28.6827 1.05073 -0.718373)
(-28.7186 0.879551 -1.09675)
(-28.7539 0.622674 -0.121403)
(-28.58 0.47753 -1.49793)
(-28.9004 0.482346 -1.27295)
(-28.8914 0.663828 -0.18115)
(-29.4687 0.516078 -0.0381004)
(-29.0036 0.684865 -2.06415)
(-28.517 1.36601 -1.89555)
(-29.278 0.432388 -0.334847)
(-29.1648 0.761787 -3.0375)
(-29.2067 0.440806 -2.26832)
(-28.9017 1.49705 -3.46764)
(-29.4256 0.173319 -3.17008)
(-30.0542 -0.206995 -3.937)
(-29.6804 0.0443574 -4.13733)
(-30.1923 0.0809201 -6.0663)
(-30.7399 2.0122 -7.452)
(-32.2508 -0.313103 -5.10372)
(-30.4698 -0.527303 -5.52726)
(-30.3999 0.756325 -1.62664)
(-30.8376 1.55813 -2.44149)
(-30.3198 -0.661943 -1.45481)
(-31.2926 1.69378 -3.61213)
(-30.269 -1.82266 -3.00973)
(-30.2049 -0.70369 -2.59732)
(-29.444 2.44041 -6.36933)
(-29.3934 5.95758 -8.78836)
(-29.0672 1.06857 -3.39202)
(-28.0799 2.23467 -2.83774)
(-28.7512 1.19166 -3.41865)
(-29.2606 1.44201 -4.60118)
(-28.8572 2.70752 -4.18816)
(-29.6891 0.926599 -4.62595)
(-29.062 2.38008 -4.3113)
(-28.1765 2.4664 -3.33199)
(-28.7005 2.40241 -3.12436)
(-30.3005 1.01905 -5.8753)
(-29.0689 3.15454 -5.24428)
(-29.179 3.23153 -4.58268)
(-28.7865 3.2564 -3.85738)
(-31.3203 6.1385 -9.48544)
(-33.5715 5.33908 -5.43517)
(-31.9743 6.06677 -5.87226)
(-28.9953 2.5331 -9.78587)
(-29.7262 2.79774 -0.739918)
(-30.6745 3.3654 -2.27711)
(-30.202 3.71294 -2.13749)
(-31.1482 3.42092 -1.69163)
(-31.3518 3.71742 -1.20387)
(-31.4591 2.90007 -1.19685)
(-31.2661 2.74288 -1.86286)
(-30.0665 2.39284 0.0480132)
(-29.2873 2.91744 -0.655147)
(-28.9562 2.66942 -1.02942)
(-28.6675 4.03872 -2.12575)
(-29.4609 4.03 -1.78224)
(-28.8177 0.836183 -0.42069)
(-28.5989 1.33082 -0.57273)
(-28.3784 1.157 -0.550315)
(-28.4357 1.24767 -0.624075)
(-28.1433 0.968949 0.0427982)
(-28.117 1.22426 -0.0620514)
(-28.2437 1.32893 -0.300134)
(-28.3458 1.03618 -0.181638)
(-28.8751 0.913819 0.503263)
(-28.6422 0.46375 0.0314585)
(-28.7662 0.944657 0.517385)
(-28.522 1.01872 0.553207)
(-28.6578 1.0776 0.437133)
(-29.1387 0.250559 -0.273722)
(-28.8919 0.618033 -0.372874)
(-28.7286 0.42758 -0.282105)
(-28.6231 0.733974 -0.323955)
(-28.5571 2.01944 -1.57974)
(-28.2393 1.8203 -1.19785)
(-28.4385 1.89047 -0.838836)
(-28.3636 1.21438 -0.40439)
(-28.1792 1.68754 -0.59619)
(-28.8633 0.966235 -0.545346)
(-28.7058 1.57039 -0.531635)
(-28.9025 0.691394 -0.460713)
(-28.9704 0.699086 -0.564211)
(-28.9977 0.971675 -0.658775)
(-28.9396 1.63419 -0.640048)
(-28.53 2.72179 -1.93536)
(-28.5403 2.39313 -0.831286)
(-29.074 1.73064 -0.370511)
(-28.951 0.993749 -0.601791)
(-28.8948 0.464522 -0.556958)
(-28.8495 0.968522 -0.65743)
(-28.9172 0.318067 -1.14178)
(-28.8937 1.21355 -0.102917)