/*--------------------------------*- C++ -*----------------------------------*\
  =========                 |
  \\      /  F ield         | OpenFOAM: The Open Source CFD Toolbox
   \\    /   O peration     | Website:  https://openfoam.org
    \\  /    A nd           | Version:  12
     \\/     M anipulation  |
\*---------------------------------------------------------------------------*/
FoamFile
{
    format      ascii;
    class       volScalarField;
    location    "0.2";
    object      k;
}
// * * * * * * * * * * * * * * * * * * * * * * * * * * * * * * * * * * * * * //

dimensions      [0 2 -2 0 0 0 0];

internalField   nonuniform List<scalar> 
136973
(
0.03342837567
0.02451833244
0.03056681404
0.0256104145
0.02420867065
0.02443954525
0.02482372901
0.02475322869
0.04739624896
0.02384181534
0.02399817907
0.02409576426
0.02458397833
0.02483294369
0.02500123958
0.02462908208
0.02412690918
0.04669644968
0.03476214419
0.02445414225
0.02370967771
0.02381729083
0.02446934347
0.02403838944
0.02466336666
0.02416893668
0.02487515121
0.02517769828
0.02499495281
0.02477153418
0.02374233539
0.03608158767
0.06047066096
0.03071882085
0.02354345613
0.02366232218
0.0235696795
0.02414690468
0.02384694497
0.02423467933
0.02405733982
0.02426429498
0.02479248477
0.02466739721
0.02454115675
0.02446853495
0.02552462149
0.02511755136
0.0253855069
0.02466185692
0.0245950938
0.03034935133
0.07299015861
0.0463830341
0.03115441007
0.02343325445
0.02353250717
0.02340002882
0.02399227183
0.02340479111
0.02403501497
0.02364705928
0.02415876166
0.02432375181
0.02420740136
0.02453667101
0.02430140594
0.02515567634
0.02471512901
0.02511230565
0.02448397955
0.02543110942
0.02533572405
0.02585720542
0.0253460679
0.02511193576
0.02455218053
0.02394575014
0.0314699018
0.05225980327
0.07862234084
0.03913658791
0.0314068996
0.02338658715
0.02348288145
0.02330142442
0.02379755499
0.02322308624
0.02377242245
0.02345601695
0.02376973901
0.02409449303
0.02399454397
0.0242125421
0.02440498911
0.0247429027
0.02432134435
0.02469880662
0.02445033927
0.02545494837
0.02506460574
0.02527212978
0.02495326928
0.02486541719
0.02429906986
0.0258368407
0.02672786453
0.02654638627
0.02673870952
0.02533631373
0.02489172576
0.02435082177
0.02587644278
0.0344029379
0.04626880739
0.1153317603
0.06150286649
0.03802212264
0.02977363536
0.02409469761
0.02341623079
0.02319009654
0.02366703421
0.02292349207
0.02364307189
0.02320324611
0.02361609668
0.02377418487
0.02369569795
0.02409026319
0.0243661377
0.02454453035
0.02413076514
0.02450599759
0.02401095948
0.02571746131
0.02490881738
0.02494589971
0.02459187728
0.02447431539
0.02422523474
0.02603842043
0.02659203704
0.02595378478
0.02585036375
0.02497973865
0.02461081989
0.02417850358
0.0290285147
0.03230983068
0.03078665747
0.03011284199
0.02705900325
0.02520463018
0.02496995599
0.02445354149
0.02474402966
0.04433898213
0.05798574382
0.09326805927
0.1098266443
0.05156901018
0.038302041
0.02968182784
0.02461729546
0.02333151062
0.02313713518
0.02347243814
0.02278554139
0.02342791005
0.02306352876
0.02333586996
0.02361214162
0.02354660714
0.0238347385
0.02434655848
0.02428815286
0.02388342225
0.02422939189
0.02381597255
0.02561749552
0.02479972902
0.02467081194
0.02441557711
0.0242819338
0.02376649879
0.02694153872
0.0269238094
0.02583125057
0.02554016448
0.02469343939
0.02420089186
0.02413983754
0.03113911911
0.03341443545
0.03037546249
0.02869525734
0.02604679184
0.02484743173
0.02468442509
0.02421395345
0.04362838406
0.07194976579
0.05439595343
0.04548256774
0.03408089808
0.0271856648
0.02547350024
0.02528383564
0.0248542284
0.04383918708
0.1072187509
0.1209424517
0.1182352795
0.1992081729
0.08538723319
0.05050924314
0.03872025574
0.03011249825
0.02410394121
0.02321132583
0.02306829313
0.02335847168
0.02260989983
0.023318095
0.02292608179
0.02320578893
0.02334213823
0.02331978436
0.02372372827
0.02418421743
0.02413683555
0.02374446406
0.02409148109
0.02339973148
0.02536467084
0.02471112354
0.02452321804
0.02418515153
0.02398212567
0.0235858084
0.0272491926
0.0270676623
0.02573062278
0.02512140396
0.02447247808
0.02400960067
0.02371888875
0.03816561292
0.03968002576
0.03329202656
0.02902037458
0.02576987731
0.02459634803
0.02429460334
0.02414702914
0.05063094493
0.07595959923
0.06051915036
0.04489288381
0.03132816927
0.0261809199
0.02503247586
0.02495648596
0.02477388589
0.07422185829
0.155999907
0.1601240138
0.1069797246
0.06074743954
0.03893499179
0.02905300153
0.02593274845
0.02573456594
0.02519042638
0.03329425976
0.1503644496
0.2343317012
0.2238134891
0.272233541
0.2181322176
0.09053202515
0.05479155188
0.04079421877
0.03186493926
0.02321813612
0.02306507162
0.0229909482
0.02314964907
0.02253587423
0.02312484306
0.02286568379
0.02300845044
0.02320564472
0.02320759585
0.0235584222
0.02403046097
0.02387086562
0.02350975721
0.02386002286
0.02321699541
0.02491924858
0.02454720966
0.02429029433
0.02405429726
0.02382478109
0.02330166069
0.02728819549
0.02719164071
0.02578916152
0.02499187889
0.02431113489
0.02379456431
0.02355045148
0.04057177829
0.04302290714
0.03548954383
0.02907163855
0.02539123461
0.02441853442
0.02409985109
0.0236465324
0.07867890376
0.1165932499
0.08903117981
0.05732371118
0.03202481929
0.02604744073
0.02488450112
0.02448675465
0.02475995326
0.09605820885
0.1777449848
0.1778215323
0.1211009226
0.05555120859
0.03518121125
0.02770924295
0.02536789759
0.02540552143
0.02501271656
0.1241423124
0.2544825794
0.313045087
0.2743916099
0.1522968916
0.09201204717
0.05805696149
0.03128876419
0.02598247793
0.02562673598
0.0240997232
0.002003936604
0.2670555835
0.4730998336
0.5295708598
0.5273226819
0.3637020187
0.2339762175
0.1156201892
0.0528545197
0.04112042211
0.03006659256
0.02417606175
0.02290782749
0.02289065139
0.02299548724
0.02244450792
0.02300218777
0.02280191063
0.02291145343
0.02296121494
0.02303986575
0.02347837498
0.02380843792
0.02368746481
0.02335808619
0.0237458181
0.02298939341
0.02460241278
0.02431437943
0.02410588506
0.02386680921
0.023559079
0.02320193643
0.02669860538
0.02695768611
0.02565528493
0.02477482365
0.02410112882
0.02369454481
0.02324916662
0.04141654931
0.0457598714
0.03844821472
0.03054619327
0.02533024334
0.02425010995
0.02386978629
0.02344182104
0.08828505621
0.1308201976
0.1042778795
0.06610741745
0.03209935774
0.02582365861
0.02466594831
0.02425945499
0.02419025246
0.1351350835
0.2545932949
0.2691973495
0.1819213601
0.07029868972
0.03655282958
0.02842298312
0.02515139654
0.02483188924
0.02495993052
0.1341732057
0.2519290136
0.2989309777
0.2782202456
0.1456451604
0.07518926587
0.04882923911
0.02858713941
0.02551413427
0.02530110565
0.02390740025
0.1835388855
0.3561441118
0.5286974995
0.5512358657
0.4148263903
0.2994865456
0.2545423471
0.09422172638
0.02853915268
0.0256871622
0.02460261396
0.02420461143
0.1016158697
0.5016947088
0.9576348639
1.281334671
1.162163278
0.7811885738
0.7727266044
0.3955733894
0.09396116967
0.05286103885
0.03742129723
0.02959086831
0.02367171541
0.02274954451
0.02277637026
0.02277858018
0.02240293575
0.0228370508
0.02277285451
0.02274491226
0.02283338092
0.02296050516
0.02333625165
0.02361236268
0.02343799911
0.02315514534
0.02354402189
0.0228873889
0.02411842084
0.02404136011
0.0238126793
0.02367057366
0.0234331448
0.02316910004
0.02586167941
0.02619781072
0.02529957239
0.02459180313
0.02396902507
0.02357108458
0.0231391901
0.04108268683
0.0458390719
0.03888442358
0.03094631755
0.02526842943
0.02413553178
0.0237641642
0.02307582827
0.0925025446
0.1487644006
0.130088032
0.08350414389
0.03488950005
0.02587761744
0.02459640195
0.02397514856
0.02394076802
0.1411100503
0.282845781
0.3115631916
0.2213235222
0.08115201451
0.03766823517
0.02901645087
0.02478357268
0.02455346383
0.02440268756
0.1683660422
0.3380465628
0.4152097008
0.3885923288
0.2179721735
0.09681500023
0.05955139857
0.02892756807
0.0250836328
0.02473317298
0.02388279584
0.1754548221
0.3315491782
0.4386636722
0.4636673875
0.3690533569
0.2282373332
0.1792149511
0.06110745708
0.02696853312
0.02535577739
0.02435865907
0.02375327098
0.2262339582
0.6117660248
1.180730821
1.536408863
1.072060348
0.765870293
0.6566259534
0.4350967589
0.05865946316
0.02635292885
0.02473092221
0.02446648988
0.02436594707
0.03725740621
0.7672629804
1.586174948
2.701547035
2.744113052
2.265599226
1.12451748
1.15583179
0.2613338544
0.07785695155
0.05422383403
0.04486034033
0.03423302663
0.02534578124
0.02260918231
0.02265523107
0.02263079072
0.02234182739
0.02268448069
0.02274220295
0.02264020439
0.02265745315
0.02287141556
0.02324436336
0.02337158533
0.02322405619
0.02299131851
0.02339538367
0.02275590095
0.023870037
0.02377092102
0.02359513901
0.02350299243
0.02321542504
0.0231539863
0.02463264652
0.02513378289
0.02463400979
0.02418662299
0.02372477173
0.02350558412
0.02308300859
0.03695148263
0.04278304287
0.03819120453
0.03085480372
0.02516173384
0.02396105552
0.02363846868
0.02293017573
0.09043766524
0.1505874725
0.1357788341
0.0884480279
0.03715502935
0.02607007886
0.02455606141
0.02384363532
0.02340582385
0.1385776001
0.3102367661
0.3893029927
0.2920524241
0.1085942775
0.04379360886
0.03093543216
0.02466435784
0.02410871204
0.02415045692
0.167112388
0.3554743441
0.4498550296
0.4373696111
0.2738624725
0.1145734397
0.06744202208
0.02907334551
0.02481026015
0.02445887187
0.0235902708
0.2149961828
0.4109390263
0.5351561949
0.5772938235
0.4732485456
0.3368075754
0.2380409132
0.06738888511
0.02692029581
0.02491028291
0.02398770917
0.02364334532
0.2467796546
0.4649346071
0.7082242275
0.9494499745
0.8057221441
0.6309643236
0.5853544445
0.2919009637
0.0456176801
0.0257048407
0.02443774055
0.02416844465
0.02394736186
0.2603866457
1.293290553
2.492513061
3.451051035
2.266276843
1.400462259
0.8546467075
0.6499404592
0.3194154499
0.03218500284
0.02547962642
0.02444344458
0.0246457523
0.02433134952
0.1948015181
2.559873354
5.624630254
7.259079758
6.897070647
6.244809516
2.365952034
2.319385653
0.8347815664
0.1533572272
0.0938291983
0.07005413645
0.05771198269
0.04681347535
0.03368966214
0.02250041407
0.02253970348
0.02246017283
0.02231637861
0.02256990594
0.02272947232
0.0225014573
0.02252696328
0.02279784848
0.02311273438
0.02318628189
0.02302604517
0.02285283208
0.02324878919
0.0226930314
0.02354036355
0.02352972938
0.02333458995
0.02329081018
0.02310592259
0.02313023586
0.02388273756
0.02420007135
0.02399268327
0.02382619763
0.02357514721
0.0233992156
0.02307582856
0.03079318012
0.03491284546
0.0331489239
0.02904815484
0.02478765286
0.02381609747
0.02357561495
0.02278006764
0.07563942766
0.1388569077
0.1345419753
0.08926990774
0.03782921744
0.02619700954
0.02454789539
0.02366911631
0.0231800857
0.125284588
0.3097428897
0.4067246378
0.3356926677
0.1284451487
0.04912078515
0.03296355022
0.02450139181
0.02390869201
0.02364251366
0.1494674904
0.3634051857
0.4950192953
0.5287399138
0.3691889732
0.15781203
0.08984735393
0.03012994609
0.02447730859
0.02403993165
0.02346693434
0.199275248
0.4136186655
0.5460537942
0.6025970058
0.5614097743
0.4120617672
0.2944282243
0.07122119805
0.02668136173
0.02469024485
0.02379986455
0.02325974816
0.2718321503
0.5167720367
0.7356521313
0.9732825213
0.8643460652
0.7572334232
0.6697721974
0.2945448604
0.04749360316
0.02544903623
0.02412124808
0.02368857829
0.02386852196
0.2364812121
0.5092550179
0.743015557
1.082784927
1.524724012
1.186615106
0.7937933627
0.5842724604
0.2155006649
0.02914779553
0.02489899387
0.02411291726
0.02434416118
0.02410052397
0.4195272231
3.874490796
8.631296216
9.100451296
7.128147082
1.638187696
0.8708948466
0.6807118296
0.5707299104
0.07038381021
0.02785254771
0.0251159411
0.02444871214
0.02473477452
0.02445195213
0.2387283999
6.045277294
14.95585213
20.19621938
15.34768495
23.51850969
6.060025767
3.377002749
1.204561935
0.3456182307
0.1852679017
0.1122609721
0.07234881545
0.04687247723
0.0300875568
0.02244657438
0.02244774699
0.02238332833
0.02229103841
0.02244832429
0.02271390521
0.02241061502
0.02244473251
0.0227598083
0.02302320859
0.02297235323
0.02280564809
0.02271691974
0.02308237173
0.02259827325
0.02340379629
0.02331149349
0.02316223257
0.02315829943
0.02295687089
0.02307998839
0.02345693539
0.02371432688
0.02358071316
0.02347237284
0.02332452138
0.023318014
0.02306493848
0.02590563765
0.02775036587
0.02750308095
0.02616385606
0.02424943631
0.02361415504
0.02347733919
0.02272437262
0.05484471511
0.1010967546
0.1079016103
0.07982823538
0.03723661265
0.02604313185
0.02451530032
0.02357990351
0.02285875689
0.09817927688
0.2818078954
0.4079101986
0.35260356
0.1391964221
0.05330765293
0.03593060246
0.02438851024
0.02361937142
0.02340789451
0.1185881065
0.3442875918
0.4999918506
0.5603861514
0.4503375832
0.1976711835
0.1114035289
0.0311900909
0.02430844657
0.02384838039
0.02319259621
0.1687906789
0.4040978477
0.5468141738
0.6162912956
0.6562640721
0.558501455
0.4052861322
0.08377926101
0.02668067323
0.02435221863
0.02349093574
0.02310513425
0.2397612683
0.5016182652
0.673281551
0.8356447037
0.8648631867
0.8722908967
0.8211713109
0.323551922
0.04801055668
0.0250490765
0.02393747664
0.02346485678
0.02357133742
0.2461187763
0.5086539598
0.6692682194
0.9099211341
1.304334058
1.117078042
0.7832745876
0.5911794827
0.21750051
0.02914621557
0.02466708112
0.02373610909
0.02386523173
0.02397245685
0.200687143
0.4162642606
0.7008239696
0.7714797648
0.7815086824
0.692894645
0.7222414133
0.6137982396
0.4804175775
0.05408121404
0.02626972661
0.0244796302
0.0240843827
0.0244024314
0.0241632426
0.4057779699
9.972575176
30.33171327
37.96202441
23.70296134
14.22471102
2.903787263
0.6531521733
0.7421322577
0.2061996709
0.0353548543
0.02680117571
0.02472090138
0.02472758536
0.02454486016
0.1340700259
3.626024057
40.89360126
72.00319938
58.65368259
52.1690099
36.9335384
6.729422097
1.751847598
0.4524405325
0.18432066
0.09085736994
0.05441971572
0.03557269406
0.02482351846
0.02243115805
0.02240592802
0.02233783373
0.02228824263
0.02240030116
0.02270359979
0.02231614521
0.02237698305
0.02271300213
0.02290862224
0.02282182471
0.02265731347
0.02265138407
0.02299350136
0.02255101946
0.02320734853
0.02311316847
0.02295407611
0.02296674472
0.02283421558
0.02301250318
0.0232347389
0.02345257909
0.02335470756
0.02328760921
0.02320605532
0.02318612779
0.02302354522
0.02412323944
0.02494031301
0.02480169494
0.02423339514
0.02364935557
0.02340293395
0.02340694852
0.02267396462
0.03701485155
0.05928361724
0.06708597227
0.05693746381
0.03276514766
0.02534375233
0.02431947926
0.02343068699
0.02273505283
0.06931147878
0.2192262762
0.366337868
0.3431227279
0.1384275553
0.05378218776
0.03790133324
0.02430490972
0.02348602606
0.02305662152
0.08199638136
0.2976651766
0.4939710947
0.5789319005
0.5134173529
0.23764848
0.1426192014
0.03269232505
0.02404886927
0.02356460987
0.02307112007
0.1150686113
0.3292780196
0.5213746034
0.6059096123
0.7060571357
0.683757584
0.523454235
0.09770761602
0.02663493563
0.0241870124
0.02332668743
0.02286470815
0.1973095276
0.4518215125
0.6103069962
0.7011090055
0.8130066887
0.9627188042
0.9518829905
0.3791516994
0.05140130905
0.02486434708
0.02367288491
0.02314376756
0.02346090465
0.2255090331
0.4919108143
0.6189561787
0.7559829312
1.087173859
1.114735475
0.9680071933
0.7398576113
0.2266287146
0.02864675442
0.02430945539
0.02355938619
0.02364924303
0.02372896458
0.196139526
0.3894305951
0.5519519388
0.4877790263
0.5003712362
0.5470715048
0.6513534766
0.6000138137
0.4793419402
0.05787230427
0.02577329535
0.02418362811
0.02363032191
0.02397685569
0.02395234016
0.1780672449
0.4126428389
1.760690987
3.316555193
2.642963402
1.140629055
0.4743968129
0.5348151194
0.6374016569
0.1516617096
0.03043653772
0.02550532956
0.02421146117
0.02440559542
0.02421785042
0.2451487535
9.038928128
67.89630912
116.5921651
91.17427899
47.26970439
27.67124267
1.911656221
0.9301868547
0.442927656
0.05773984102
0.02904038482
0.0254162801
0.02482731472
0.02503538128
0.07679884814
2.987855061
41.51791865
166.4115202
189.8790251
125.3184248
106.6979585
34.50062557
4.691161241
0.6326722339
0.1676435064
0.06987536809
0.04302999477
0.03078332207
0.02402223437
0.02242820135
0.02239787719
0.02232763563
0.02229614061
0.02236920251
0.02268060816
0.022260332
0.02235968418
0.02268943885
0.02282887941
0.02266287663
0.02248836059
0.02257282956
0.02285098541
0.02249063359
0.02310358655
0.0229310985
0.02282089273
0.02286698774
0.02275931529
0.02293252236
0.02305196143
0.02324846284
0.02315988942
0.02307421574
0.02300854384
0.02307057406
0.02294755563
0.0232718512
0.02368021509
0.02369215471
0.0235014633
0.02334251818
0.02324847988
0.0232757335
0.02262067727
0.02809137333
0.03563539132
0.03770579872
0.03498424641
0.02704291613
0.02432245335
0.0239888259
0.02333098019
0.02260882311
0.04449180873
0.1453159384
0.2696968575
0.2682597352
0.1171827021
0.04997523952
0.0381924244
0.02412415164
0.02327955787
0.02289714585
0.05270533477
0.2353324709
0.4561248919
0.5771265019
0.522059546
0.2466633399
0.1702516023
0.0340212619
0.02391534284
0.02343174104
0.02285464293
0.07178595517
0.2453301704
0.4859082964
0.5992058739
0.7256498659
0.7996410427
0.6694991021
0.1176795092
0.026629935
0.02390689436
0.02309084765
0.02276010098
0.1194075175
0.352723877
0.5531801842
0.6103570555
0.7417103331
0.994131432
1.127251712
0.4730959468
0.05466602552
0.02456407467
0.02354870401
0.02299425327
0.02329538013
0.1838726697
0.4477624571
0.5839152633
0.604807927
0.6987320972
0.9337319057
1.020318647
0.8297913736
0.2474150891
0.02879544965
0.02416095974
0.0233163793
0.02334709381
0.02364295963
0.1854182075
0.3797709402
0.5440742401
0.430441966
0.4218490801
0.5083054662
0.7041925571
0.7291575541
0.5758216435
0.0599627764
0.02506808085
0.02382102366
0.02344597376
0.02379809192
0.02363028535
0.1710606323
0.2797505281
0.5094309404
0.5407653906
0.4381096398
0.3639505649
0.3765080593
0.5662150417
0.6363023353
0.2045463861
0.03005620349
0.02494169206
0.02372263381
0.0239784588
0.02393420864
0.1920839697
0.3324914747
4.785742738
21.21758058
26.22504626
13.49080818
3.296244978
0.5794681427
0.8478740171
0.2944291731
0.04585749553
0.02696563233
0.02461410946
0.02447622843
0.02435484519
0.1948450091
5.098458265
57.6333907
274.7744237
331.181378
175.3656442
108.0749943
24.56999265
1.572348907
0.782516921
0.08776830959
0.0321899586
0.02585027054
0.02473530981
0.02479203249
0.05648072454
1.146945469
24.23340126
121.6765233
622.0669683
594.9305507
293.9233276
135.7340599
65.48517291
1.583068224
0.3033925981
0.07676589
0.04159318317
0.02995188171
0.02382009001
0.02242422257
0.02239971376
0.02231892618
0.02232828516
0.02236784764
0.02264557145
0.02220837104
0.02235834132
0.02264862985
0.02271652522
0.02255038538
0.02240837925
0.02254017124
0.02278395961
0.02245829899
0.02296767711
0.02276653438
0.02266368188
0.0227144795
0.02266126101
0.02283991914
0.02294535294
0.02307210861
0.02299174089
0.02294153433
0.02291444718
0.02296035913
0.02284965994
0.02294550123
0.02326325114
0.02329692895
0.02314878189
0.02313472305
0.0230746212
0.0231464376
0.02253992955
0.02473354951
0.02662392588
0.02806927893
0.02712536174
0.02452386072
0.02353131423
0.02355717129
0.02317794527
0.02254855194
0.0316591587
0.07013379202
0.1459610179
0.1496303439
0.07208935255
0.03938576263
0.03656995534
0.02388266588
0.02317832763
0.02269008199
0.03595449923
0.1658491386
0.391471741
0.5429154633
0.4873787742
0.2394948479
0.1791800633
0.03440427257
0.0236755185
0.02321722803
0.02275801684
0.04118856956
0.154989021
0.4363380681
0.5935530483
0.7390506562
0.836044065
0.8036980484
0.1373209742
0.02653784096
0.02376819359
0.02298178408
0.02263160606
0.07777332639
0.2303196635
0.4962226068
0.5776611916
0.6930307292
1.009505173
1.240799846
0.5938331743
0.05916383306
0.02441133635
0.02335095777
0.02277608686
0.02322997908
0.1241078771
0.3549668433
0.5555213831
0.5742661366
0.5720240545
0.7599465415
1.070264944
1.020784073
0.2871172087
0.02909347551
0.02393506359
0.02321092119
0.02321156775
0.02354507789
0.1677414108
0.344154006
0.5504281244
0.4354362791
0.3707826094
0.4391436688
0.6728841026
0.7830723426
0.6424040682
0.06956432451
0.02484358093
0.02367686881
0.02323351765
0.02361870404
0.02349303268
0.162443886
0.2642712506
0.4310819273
0.3498245475
0.267353593
0.3033599209
0.4059573449
0.716551797
0.7919020028
0.230004597
0.02908837932
0.02429331996
0.02350786095
0.02381097715
0.02362606361
0.1918956349
0.2231929735
0.5197692386
1.993297633
2.677044721
1.717944842
0.6426815695
0.5434049203
0.9344025379
0.3340031386
0.04880148316
0.02607492995
0.02400883523
0.02400929112
0.02422873726
0.2006368513
0.2762864631
3.073464191
53.30765018
138.6201625
115.6970268
37.0623011
4.016857807
0.9084958603
0.6091884343
0.06056648171
0.02884345763
0.02494204257
0.02432112031
0.02431917039
0.1418572288
1.649236853
35.0760663
227.9449139
779.1601086
683.5321136
293.4880624
144.8763917
8.61037215
0.8888993941
0.2393756127
0.04886969536
0.02653772133
0.0248238956
0.02447827555
0.05914439449
0.3536305569
8.050652201
74.65352371
536.3544784
2401.417484
1976.323317
484.3067771
226.8106092
13.33061674
0.7423535195
0.1547410461
0.04277457586
0.02962441885
0.02331434934
0.02240720617
0.02240403742
0.02229434839
0.02235248062
0.02237290256
0.02258492198
0.02219098643
0.02236930851
0.02261690203
0.02265027272
0.02243242717
0.02231572079
0.02249715241
0.02267120619
0.02240540251
0.02287619803
0.0226147916
0.02256977504
0.02264209682
0.02261384419
0.02274077046
0.02283636366
0.02293930243
0.02284580531
0.02277510294
0.0227607655
0.02284828035
0.02274017402
0.02276239238
0.02303309798
0.02307845734
0.02296806447
0.02299528096
0.02298067767
0.0230180717
0.02246612636
0.02352980812
0.02412286916
0.02435482685
0.02409464489
0.02347167325
0.02322382523
0.02317934301
0.02302430312
0.02246560847
0.02604975842
0.04136619729
0.06120872695
0.06189338089
0.03959083605
0.02955485234
0.03187104609
0.02353905333
0.02305761019
0.02259501996
0.02857574392
0.09294445139
0.2852015692
0.4469142765
0.3744073228
0.1803965793
0.1771617381
0.03400463678
0.02351857898
0.02311269033
0.02264983249
0.03099720913
0.0952186344
0.3685826276
0.581506416
0.7392100797
0.8373140583
0.8771369007
0.1524510148
0.02639924076
0.02351383178
0.02284309523
0.02257349277
0.04337896231
0.1123608996
0.4234325866
0.5646626867
0.6881068211
1.036991993
1.369924044
0.734298401
0.06371523374
0.024119282
0.02326126348
0.02267728632
0.02316640776
0.08902628923
0.2115660311
0.498496243
0.5710291574
0.5296868817
0.6384345647
1.062756167
1.192370869
0.3419817721
0.02939463596
0.02382533727
0.02306701123
0.02304624492
0.02351397519
0.1377163535
0.256332197
0.5546910557
0.5079486355
0.3855317398
0.4341249097
0.6289041387
0.9017299758
0.7969444209
0.07925881968
0.02459640392
0.02350271846
0.02314370723
0.02355575002
0.02332581817
0.1518752454
0.2442131678
0.4455609932
0.4027650435
0.2782399964
0.3386540705
0.4236429563
0.7895819495
0.8661085549
0.2993894137
0.0292910581
0.02406221103
0.02328040159
0.02364927691
0.02346971547
0.1755032944
0.2124135967
0.3006550637
0.421763317
0.2912313286
0.3012769736
0.4193246442
0.6971040147
1.149788173
0.3483157433
0.05055331798
0.02503893178
0.02371401081
0.02382788584
0.02391393149
0.2068275592
0.232399612
0.3505978608
4.257377908
17.09901657
16.43819762
7.008909506
0.8959029918
0.9012154925
0.5650649278
0.06120883017
0.02830564111
0.02439705015
0.0238037589
0.02426872485
0.1562048537
0.3106518721
1.047934059
34.42864887
299.97301
486.7947281
269.9376411
49.03074693
1.727099485
0.6673052027
0.1948583264
0.04663740816
0.02564873201
0.0244168575
0.02402173055
0.09412104977
0.4498648931
12.80417651
126.7199477
689.2372125
1555.629282
1330.038191
418.596358
81.64550892
5.054353702
0.4409929541
0.1951116483
0.03110247803
0.02524332023
0.02412989449
0.02611632069
0.164689497
2.034182098
36.25134895
281.5688116
2088.177124
3524.469191
3208.549167
967.7280028
80.35014331
7.905852822
0.3933135325
0.06828612088
0.03039580689
0.02343146903
0.02236716599
0.02239697379
0.02224291213
0.0223601837
0.02238733842
0.02250539678
0.02217584616
0.02237305062
0.02255887853
0.02254219481
0.0223452375
0.02227254981
0.02247157017
0.02261740963
0.02237642914
0.02276477204
0.02249485906
0.02246025643
0.02252717295
0.02253768021
0.02264029628
0.02276776515
0.02281439991
0.02271468923
0.02267976811
0.02268627414
0.022759466
0.02262983572
0.02262812439
0.02291720345
0.02294558898
0.02283480928
0.02283253625
0.02282871152
0.02289140774
0.02239719204
0.02309629163
0.02312458929
0.02329195298
0.02318872107
0.02310563285
0.0230301252
0.02300879467
0.02289402791
0.0224113939
0.02419054724
0.02838246559
0.03409181078
0.0348129154
0.02869742621
0.02562325264
0.02687730772
0.02320712593
0.0229290854
0.02248172775
0.02538682225
0.05113723327
0.1637467232
0.289355204
0.1938474717
0.1111236034
0.148949943
0.03116005286
0.02329654282
0.0229822072
0.02260150099
0.02622492627
0.06173241144
0.2868425349
0.5430497134
0.7154616414
0.7689782735
0.8919029307
0.1547524698
0.02598605758
0.02338303163
0.02278518627
0.02251943343
0.0316082537
0.06289937071
0.3116986039
0.5597200869
0.7131045234
1.0696112
1.434443499
0.8587299018
0.06678741276
0.02395218899
0.02313305949
0.02257570777
0.02314251101
0.05489209452
0.09837044939
0.4108807571
0.5770452177
0.5486773675
0.6247928337
1.044384947
1.418019435
0.4158132385
0.02946967346
0.02362660404
0.02300168881
0.02298078203
0.02349982007
0.1129193945
0.1577046362
0.5124057032
0.5703793197
0.4330103921
0.45591627
0.6044499008
0.9729557603
0.9675854845
0.09260713817
0.02447380628
0.02342264361
0.02305408601
0.02352828646
0.02325690844
0.1319501502
0.2071294509
0.4471309927
0.5419347498
0.342306298
0.3906724515
0.4699259992
0.9418827578
1.034687916
0.3646356893
0.03003783007
0.02383503879
0.02317594939
0.02358086485
0.02337995634
0.1637976374
0.1956826702
0.2894805375
0.420006925
0.2626109918
0.281877878
0.5158281325
0.7801118211
1.237157856
0.3772747913
0.06125302095
0.02472141639
0.02345619932
0.02365713241
0.02379294831
0.1708604049
0.2194681582
0.2254352239
0.4088465868
0.7019399979
0.7145016467
0.572076882
0.6495402669
1.052507353
0.5518896111
0.0603525523
0.02740640896
0.02396663303
0.02357882071
0.02401926471
0.1712419212
0.2862785607
0.2636348089
2.346932124
37.45708605
94.92005899
63.22795239
10.92959424
0.8846520848
0.6202684229
0.2344322354
0.05359449642
0.0252317084
0.02395815937
0.02394652305
0.1124460387
0.2554579105
0.4747521213
9.82071122
216.8451307
884.5597863
875.0626034
337.3699211
35.76249585
0.7373682165
0.3746616891
0.1999342011
0.03031868496
0.02486361432
0.02374226011
0.05720759363
0.2190700834
3.050916693
53.89711449
407.7659233
1426.719252
2060.520167
1941.471263
523.3485923
86.93586494
4.000234263
0.3664912141
0.08002345716
0.02657921245
0.02424273204
0.02758076622
0.1332707308
0.5520070483
10.46407325
106.7646229
873.3682592
2871.154296
2614.066459
1481.641793
321.8687578
59.55745738
2.624887683
0.1586996811
0.03381835855
0.02405295412
0.02229540901
0.02236055113
0.02218155313
0.02234957505
0.02238579858
0.02241227556
0.02216853647
0.02236604426
0.02250973043
0.02247659712
0.02225162658
0.02220424264
0.02242527395
0.02252296512
0.02231808874
0.02266652211
0.02239146445
0.02239863431
0.02247150941
0.02249511991
0.02254738801
0.02268101532
0.02270515373
0.02259674746
0.02255201655
0.02256427993
0.02265589015
0.02253338468
0.0225168911
0.02279480901
0.0228251051
0.02270339919
0.02273265323
0.02275528108
0.02278139741
0.02235370566
0.02290069346
0.02283798645
0.02295719981
0.0228781156
0.02290466569
0.02290034709
0.02285455813
0.02275779829
0.02235659836
0.02332863946
0.02453767277
0.02581647794
0.02599750797
0.02455934296
0.02389006967
0.02465417154
0.02299236699
0.02283443043
0.02243149194
0.02404464037
0.0329508383
0.0679331268
0.1081743777
0.08010255058
0.05757420856
0.1025111928
0.02746170432
0.02309536823
0.02286048836
0.02253618967
0.02437556934
0.04215284207
0.2032988231
0.451993577
0.6236962355
0.5787247058
0.8506567807
0.1444834459
0.02518427316
0.02318379204
0.02270388812
0.02249397647
0.02666203899
0.04194611944
0.2045514496
0.5457965283
0.7712592787
1.110239804
1.537222456
0.9325217875
0.0669087898
0.02363450126
0.02307347383
0.02253485872
0.02312918104
0.03837041282
0.05610792841
0.2544042675
0.567564449
0.6213541644
0.6858257297
1.056815901
1.626885283
0.4821498996
0.0292594325
0.02352804798
0.02294088464
0.02294686572
0.02349253373
0.08301439476
0.08660649622
0.391716405
0.583604029
0.5104721749
0.506445003
0.6102520085
1.071859371
1.209205109
0.1048225761
0.02424714765
0.02331425074
0.02301603294
0.02352245836
0.02318770387
0.1138716273
0.1709745025
0.3652269028
0.6241374663
0.3995486392
0.44084043
0.535445217
1.05397372
1.168739619
0.4572954092
0.03128591479
0.02372918547
0.02307467483
0.02352162616
0.02333358601
0.1365489578
0.1762672744
0.2578157572
0.5525156118
0.3448108962
0.3290627958
0.5827022193
0.855883222
1.34388388
0.4072921047
0.07163166629
0.02444557962
0.02331131916
0.02358438467
0.02361101945
0.157399125
0.2011210606
0.2143134394
0.3402286364
0.3074715948
0.2680192976
0.4067649745
0.721035228
1.071611841
0.4981796
0.06189146139
0.02744395511
0.02375545565
0.02332763129
0.02392796123
0.1428173517
0.245029333
0.2225758882
0.2943813452
1.498318701
4.393498162
3.199955005
0.8763751985
0.8230792667
0.6142160464
0.2684209161
0.05595542418
0.02473022369
0.02372918308
0.02362426094
0.1317333693
0.2559475623
0.3102075565
0.7027448019
21.79213276
189.5780146
311.848459
97.96652447
4.802663705
0.5625027148
0.3980219133
0.2619248936
0.03168142122
0.02450429622
0.0236545764
0.0659469005
0.2018339459
0.377731132
1.95039502
73.05596221
730.2435303
1140.859931
1036.380348
273.5401906
11.36055446
0.3558379757
0.2870604973
0.07904950844
0.02631516051
0.02402770713
0.03322912815
0.1724152509
0.5502355798
17.44018526
162.0607326
951.665657
1872.41534
1763.940335
1193.882108
396.3073969
59.78141071
2.854709082
0.1999149604
0.03549671446
0.024885079
0.02312759279
0.06666401283
0.251748533
1.831437171
35.96449843
283.4156562
1698.257676
1652.692759
1206.58169
647.6415746
198.9341417
20.52308096
0.6027395713
0.06352707072
0.02400559353
0.02221463868
0.02231203272
0.02213553796
0.02232500469
0.02236033544
0.02231895708
0.02216157306
0.02233198784