/*--------------------------------*- C++ -*----------------------------------*\
  =========                 |
  \\      /  F ield         | OpenFOAM: The Open Source CFD Toolbox
   \\    /   O peration     | Website:  https://openfoam.org
    \\  /    A nd           | Version:  12
     \\/     M anipulation  |
\*---------------------------------------------------------------------------*/
FoamFile
{
    format      ascii;
    class       volScalarField;
    location    "0.2";
    object      nut;
}
// * * * * * * * * * * * * * * * * * * * * * * * * * * * * * * * * * * * * * //

dimensions      [0 2 -1 0 0 0 0];

internalField   nonuniform List<scalar> 
136973
(
0.0007046072884
0.0004543278449
0.0005280301917
0.0001341568561
0.0002668209979
0.0003316813366
0.0006577498493
0.0001119772193
0.002870161102
0.0001150452432
0.0003691895951
0.0002786353298
0.0003798392068
0.0006363715387
0.0002326253708
0.0005414814677
0.0001245270848
0.002848190252
0.00151246156
0.0001481883608
0.001824955983
0.0009452075714
0.0005166151791
0.0003265973421
0.0006010652921
0.0003487185586
0.0004852959764
0.00023353303
0.0002436733318
0.000498538967
0.0001217433851
0.001641012011
0.002663812155
0.001478822013
9.744848463e-05
0.001791357366
0.001422750439
0.0003725807049
0.0004590466744
0.0008853194591
0.0004873488369
0.0003430894138
0.0006609039689
0.0007759371906
0.0003516367151
0.0003700481489
0.0002838381099
0.0002061165191
0.0002690716976
0.00048138154
0.0001083506382
0.001268130345
0.002660671173
0.002962242753
0.001936284389
8.806095491e-05
0.002233774495
0.001763223416
0.001571682135
0.0002961842539
0.001252942632
0.000335881387
0.0005252843583
0.001009394406
0.0009135243055
0.0005311481798
0.000299547584
0.000860531038
0.0006524999653
0.001149677884
0.0003475131724
0.0004707356837
0.0002550444627
0.0002323871152
0.0002571548956
0.0002240907127
0.0004719575082
0.0001126365693
0.001883937007
0.00289836192
0.002611435902
0.003137668972
0.001972131026
0.0001003436056
0.002270370611
0.001949292252
0.001900761598
0.001481792124
0.001241761313
0.001347170495
0.0003631598625
0.001301588852
0.001366132248
0.0003951637438
0.0005302238806
0.001066379929
0.0009471260402
0.001012296211
0.000540635806
0.0004235787719
0.0009806829145
0.0007725623973
0.0007563058388
0.001207751169
0.0003372712715
0.0004745202325
0.0003319790918
0.0003390564979
0.0002838424983
0.0002665042797
0.0002116061778
0.0004398231031
0.0001105021284
0.001855542042
0.003050914893
0.002680639165
0.002760448474
0.003106134935
0.001571626134
0.0001185399566
0.00224846852
0.002180723945
0.002109495306
0.001853821366
0.001693562632
0.0016381507
0.001350971845
0.00124328525
0.001124231645
0.0003428845233
0.0004628756692
0.001386181011
0.001381406093
0.001505438234
0.0004031215779
0.001052250242
0.0009522812728
0.001126437102
0.0009900394723
0.0008945305122
0.0005228638583
0.0004816468024
0.00204473725
0.0009009935091
0.0009125260984
0.0009730761775
0.001293532646
0.0003114376678
0.0006615587451
0.0005948668029
0.0006545615942
0.0004241594264
0.0003752054376
0.0002512702052
0.0002148816379
0.0004524931099
6.247210663e-05
0.002411289497
0.00325714586
0.002668744863
0.002632982372
0.0028093096
0.00307954015
0.001467146921
0.0001363062867
0.002145492676
0.002358447236
0.002066262171
0.002165582638
0.00178490021
0.002163774595
0.00192495189
0.001563324558
0.001511137169
0.001718546974
0.0004822540175
0.001289276055
0.001250066158
0.001252190587
0.0003367151119
0.0009754928498
0.001409679071
0.001553029783
0.00142759576
0.001328202364
0.0003814008542
0.001324986366
0.00146882491
0.001353110038
0.001333505136
0.0009786884301
0.0008038478148
0.0004912673477
0.0008179196572
0.004667096673
0.002048622656
0.001462023057
0.0009881439954
0.001039368012
0.001424096267
0.0003204119045
0.001385867992
0.002652745676
0.002295298074
0.001466496705
0.0007388330946
0.0004319647092
0.0002700246393
0.0002404897701
0.0005349141412
0.0004679659595
0.005252074348
0.004104661463
0.003171223096
0.002862853609
0.002633733433
0.002785126628
0.002976720028
0.001514637988
0.0001180532601
0.002071351641
0.002364358134
0.002009375561
0.002719962551
0.001885818387
0.002427224783
0.001973822938
0.001580977385
0.001707218229
0.002095184482
0.001418236469
0.001472836461
0.00143358117
0.001530748951
0.001588090433
0.001421613249
0.001278585537
0.001347539062
0.001229908258
0.001139872025
0.0003168284929
0.001376103211
0.001959361288
0.001804990089
0.001919869019
0.001418938214
0.001145951932
0.0003653586954
0.004267945177
0.003978615755
0.003014091203
0.002258065477
0.001482187026
0.0009148273469
0.0008358250916
0.0005044055349
0.002011630692
0.005032982198
0.005286780844
0.004106770597
0.002120997207
0.001273007773
0.001181873045
0.001629418389
0.0003817964449
0.004170905347
0.004889245159
0.00557149244
0.004628117707
0.002238684942
0.001534363497
0.0005650727322
0.0003267517475
0.0002715161417
0.0005873634794
0.0004337894554
0.003790853874
0.004218478496
0.00373248803
0.003260695781
0.00287544056
0.002806061643
0.002760828382
0.002981311662
0.001963987322
9.040143869e-05
0.002059043299
0.002300090761
0.00197583597
0.003387403436
0.001869915936
0.002501398201
0.002105767836
0.00166477567
0.001891059425
0.002022303368
0.001634069059
0.001431255784
0.001473051533
0.001655180561
0.002485643791
0.001674720881
0.001292422052
0.001381461275
0.001380932668
0.001342438644
0.00149069962
0.001878320494
0.00173653584
0.001617523813
0.001420946087
0.001214121437
0.001018340441
0.0003014023533
0.005458512908
0.005416422834
0.004767573872
0.003267673207
0.002026715908
0.001344512617
0.001117933457
0.0003598002801
0.005302133692
0.005308512591
0.005131363671
0.005180745309
0.003764365621
0.00159942589
0.0009878321759
0.000949362986
0.0006223441854
0.005204728455
0.005041064016
0.004883706966
0.004814773727
0.004487700976
0.0037632215
0.001825765134
0.001379234459
0.001760268606
0.000406795253
0.004451383165
0.004682982127
0.004900873099
0.004855025417
0.004311650282
0.003836420767
0.00392234501
0.0008451328851
0.000326428846
0.000262116189
0.0004821029855
3.408695903e-05
0.004386194255
0.005474107204
0.005180930569
0.004079264672
0.003275376997
0.003197087715
0.002930886183
0.002707742506
0.003046643671
0.00177960192
0.0001497859873
0.002116619267
0.002270416052
0.002040315834
0.003997575956
0.001875113637
0.00246598397
0.002232322898
0.001732874477
0.001920602138
0.001860078132
0.001504401121
0.001385439763
0.001517078402
0.001603354647
0.003087902526
0.001460146616
0.001295115734
0.001300674398
0.001359561418
0.00163633764
0.002544437093
0.002060700065
0.001839319491
0.001573677337
0.001399396813
0.001341422824
0.001175554179
0.001302536892
0.005888963147
0.00536692785
0.005182710436
0.002702997438
0.001457821931
0.001177841727
0.001015151726
0.0002969260253
0.005260086451
0.005309179028
0.005165545726
0.00523068307
0.005839382369
0.00215573186
0.001425248826
0.001234578143
0.0004381695097
0.004766628253
0.004969093486
0.005106415006
0.004772483192
0.00438372961
0.004670740195
0.00236702163
0.00116731755
0.001120125664
0.0006467626806
0.004325106389
0.004259516448
0.004173683447
0.004217652853
0.004236928205
0.003669237999
0.003854957655
0.002493571
0.001322511005
0.001527417617
0.0003215905698
0.004535102286
0.004555428482
0.005489024667
0.005493337217
0.004904386025
0.004574944368
0.004627278452
0.004150965875
0.0005794403701
0.0002926802924
0.0001999342911
0.0004670680795
0.003337774317
0.006179454787
0.007079298575
0.00672629007
0.005703508957
0.00451928452
0.004276809947
0.003971719923
0.002714237124
0.002708552754
0.003120448893
0.00131363947
0.0001138974272
0.002261688531
0.002290027116
0.002210413804
0.004417832577
0.001951312327
0.002438173951
0.00232287116
0.001832105481
0.001903391437
0.001710635589
0.001439218375
0.001350573724
0.001556824515
0.001475569597
0.003487580674
0.001295372104
0.001174318958
0.001219765213
0.001311061894
0.001779383791
0.003095451655
0.00177044142
0.00158377887
0.001393269834
0.001247908075
0.001329776965
0.001495501881
0.002169546845
0.005954319262
0.005383939634
0.004874117892
0.002700687521
0.001450672786
0.001280937654
0.001097164207
0.001195221005
0.005323164673
0.005429220745
0.00537458654
0.005254479973
0.004569804378
0.001646066776
0.001262286506
0.001095383894
0.0003571454362
0.004782181811
0.005032503644
0.005126955328
0.00495121111
0.004438875987
0.004660058922
0.003594101358
0.00166291065
0.001429331772
0.0004511564704
0.004209695981
0.004455909855
0.004435160579
0.004357739661
0.004087479967
0.003428099809
0.003689746185
0.003517829327
0.001189842073
0.001118666038
0.0004804094406
0.004125848737
0.004105400112
0.004548571373
0.004589623779
0.004423604909
0.003854253461
0.003668712638
0.003198226064
0.001689919805
0.001070471901
0.0009133017984
0.0003034865365
0.00418425219
0.006220318991
0.008925569538
0.01049954602
0.007703035019
0.006149021045
0.005763071952
0.00520548053
0.003500477673
0.0003450707309
0.0002207529321
0.0002143619236
0.0006547563017
0.0008815788213
0.007368610238
0.008852484263
0.009388729707
0.009067950468
0.007240125242
0.004660436258
0.005320777481
0.003319917911
0.002638555351
0.00271968357
0.002853028659
0.001382358997
0.0001274934069
0.002512828592
0.002372387427
0.002572663799
0.004644106537
0.002105861364
0.002429192075
0.002481654779
0.002009066361
0.001918775433
0.001656401094
0.001412450363
0.001350622195
0.001606235233
0.001359486254
0.003415860194
0.001132868622
0.001069944547
0.001163003467
0.001256030473
0.001805869177
0.00284801335
0.00136584851
0.001269883877
0.001169285375
0.001097603697
0.001287591771
0.001650043026
0.003041327082
0.004660907989
0.00536127293
0.004095494302
0.002369928115
0.001293732379
0.001274562532
0.001394126809
0.001817558448
0.005451899485
0.005460181117
0.005441831444
0.005316680796
0.004928603839
0.001679781677
0.001347619519
0.001095578806
0.001230850151
0.004785861863
0.005136237651
0.005365153973
0.005078975458
0.004497101321
0.004424137643
0.00352031511
0.00144902224
0.001233731121
0.0003749449807
0.004185719653
0.00445424886
0.004414681249
0.004361764949
0.004369946427
0.003552477261
0.003727483368
0.005604663322
0.001690400787
0.001636028543
0.0003650230193
0.004113467928
0.004264930741
0.004517279822
0.004621779997
0.004230500011
0.003765327833
0.003576208928
0.003017531346
0.002239518913
0.001163249692
0.0009199619255
0.0004118805992
0.004248622897
0.004744042882
0.005801533807
0.006857228209
0.006046321474
0.005195023358
0.005226079403
0.003860288299
0.00330970824
0.00095540818
0.0006705849377
0.0008094973691
0.0003644414025
0.004363495002
0.01211317851
0.0187531602
0.02215512952
0.0132032604
0.008867152645
0.006531835151
0.005379816379
0.004601134983
0.0009028774799
0.0002369081691
0.0001934149492
0.0002254608113
0.0006484524495
0.008689531194
0.022145054
0.02636088668
0.02237163932
0.01796879818
0.01030679671
0.006727250583
0.005816520572
0.004513651449
0.002623370657
0.00261171963
0.002603239069
0.002664596617
0.002863823883
0.0006862995491
0.00284299383
0.0025342613
0.003182659994
0.004744832462
0.002356682589
0.002399303572
0.002709213165
0.002271736608
0.001955638184
0.001648683993
0.001484360038
0.00144401804
0.001717440278
0.001327999004
0.003324049064
0.001058125583
0.001020217941
0.001139982642
0.001217891749
0.001763704633
0.002407653214
0.001100130149
0.0009769652183
0.0009788364806
0.0009722537052
0.001241931859
0.001628443938
0.003243245632
0.002638676889
0.00319333404
0.002721312468
0.001805577304
0.001141528966
0.001229913977
0.001590648527
0.002360730917
0.005441140791
0.005468659337
0.005503585444
0.005342745335
0.004588983236
0.001541159876
0.001358083029
0.001315604268
0.001570804992
0.005002225356
0.005173665589
0.005410272265
0.00537418924
0.004638589966
0.004293649347
0.004226584581
0.001460450588
0.001151436199
0.001222453297
0.004158611271
0.004511246876
0.004458001733
0.004368685744
0.004400325864
0.003587604618
0.003754267093
0.005093705094
0.001446001246
0.001314044706
0.0003158387076
0.004045431764
0.00425277752
0.004406017787
0.0045497017
0.00453446243
0.004029262689
0.003943837152
0.003045865242
0.003452836642
0.001835962284
0.001718294233
0.0003061662106
0.004168429506
0.004759071555
0.00555129336
0.006656086306
0.005829908812
0.005067045238
0.004827387892
0.003489599535
0.003008207827
0.001405781696
0.0009084534224
0.0008869517552
0.0005039825217
0.0037491724
0.00499028177
0.005877046717
0.007483347132
0.009483243766
0.007761859618
0.00608720772
0.004954307663
0.003466678392
0.001881668889
0.0005669728373
0.0004951189877
0.0006440917669
0.0003369640466
0.006576533951
0.03304561765
0.06038281927
0.06372721179
0.04974855982
0.01086048777
0.006346987414
0.005410075145
0.00509251499
0.003353947566
0.0003306231218
0.000178254983
0.000167700584
0.0002136390772
0.000424278672
0.009970278874
0.03633760947
0.05805442794
0.0510983456
0.03561207927
0.03923406941
0.01093307424
0.006725509485
0.004520413129
0.003293812851
0.002833239663
0.002679720543
0.002631514302
0.002871339943
0.0004668292729
0.003160836809
0.00274092808
0.004074694598
0.004771904339
0.002694957675
0.002342290123
0.003042325029
0.002621725384
0.00199048202
0.001677441342
0.001635224755
0.00161464736
0.001870824708
0.001343041585
0.003339365724
0.001082061165
0.001052741079
0.001204219709
0.001256019299
0.001770428454
0.002180587408
0.001005260271
0.0008109630783
0.0008798410478
0.0008912353077
0.001199015222
0.001535704221
0.00271766938
0.001408242598
0.001632900472
0.001550649508
0.001200317627
0.0009809177899
0.001184072424
0.001635183575
0.002929188938
0.0056444719
0.005318884246
0.005494123544
0.005420101846
0.003827182914
0.001407475861
0.00131548295
0.001423263623
0.001894381417
0.005157730403
0.005264675829
0.005473249686
0.005527912037
0.004763849592
0.00419871181
0.004980350932
0.001430124601
0.001324832231
0.001429189086
0.004332219041
0.004618297755
0.004474474841
0.004403995941
0.004647454862
0.003747321634
0.003854551482
0.005257347189
0.001426601374
0.00121769406
0.0002484468391
0.004141578794
0.0042545858
0.004270558862
0.004310916543
0.004487082025
0.004183267232
0.004168208387
0.00310134672
0.002871154056
0.001534189254
0.001426451294
0.0002620919941
0.004089491021
0.004640755141
0.005033797567
0.005699103288
0.005667387482
0.005386363362
0.005449942032
0.003628675529
0.002932233593
0.002058543103
0.001529991
0.00149922068
0.0003622397116
0.003698977036
0.004758402838
0.005309723267
0.006497052848
0.008408193392
0.007378171517
0.005497968052
0.004574441571
0.003023146873
0.004582742591
0.001048619014
0.0008530668836
0.0009790300633
0.0004219213907
0.003232976022
0.004450350825
0.006026779009
0.006488699105
0.006434783707
0.005137442113
0.005496448056
0.005004632181
0.004509034406
0.003275918217
0.0008342243594
0.0004998150941
0.0004712470109
0.0005318991564
0.0002468029069
0.006621551079
0.06403101866
0.1069663928
0.1418245796
0.122112508
0.08383282603
0.01966743232
0.005181900507
0.005679646721
0.003599841538
0.0007391474243
0.0002462423796
0.0001718610821
0.0002014813391
0.0003445663672
0.005259059703
0.02350329746
0.1197490621
0.09951840952
0.0801462723
0.06364540076
0.03279599203
0.01016978719
0.005458121909
0.003207144619
0.002866825941
0.002684020491
0.002901343143
0.001573298158
0.0001073251883
0.003313689572
0.002890205177
0.004901004952
0.004594509216
0.003082638917
0.002268215724
0.003508559129
0.002989632312
0.002010693257
0.00171951313
0.001857180022
0.001880273715
0.002044734325
0.001393812029
0.003379543971
0.001174860386
0.001176633594
0.001334307519
0.001348086639
0.001838616932
0.002042571358
0.001077401028
0.0007752356177
0.0008981867577
0.0009041651134
0.001225902404
0.001484773535
0.002361341571
0.0008963635045
0.0008997513798
0.000905102612
0.0008201333971
0.0008594877823
0.001152171012
0.001527108485
0.002988636049
0.003956383688
0.005107694327
0.005233342293
0.005566121757
0.00250048605
0.00117365029
0.001228980505
0.001498183672
0.002387691295
0.005510391673
0.005434182759
0.00565507733
0.005813553002
0.00482486806
0.004187038987
0.005332951907
0.001356096827
0.001462890994
0.00169784615
0.004404003152
0.004891098463
0.004520605724
0.004465201511
0.004917372905
0.003838805335
0.004006191034
0.005065455499
0.001398212386
0.001345910966
0.0002112048949
0.004109529844
0.004162537235
0.004093690606
0.004132466074
0.004580825067
0.00452761015
0.00457284043
0.003262011778
0.003047226869
0.001520893919
0.001536071151
0.0002186649741
0.004126916006
0.004461310464
0.004555409577
0.004763660847
0.005172941151
0.005407879772
0.005420716558
0.003705599134
0.002816449705
0.001599489521
0.001350963879
0.001399184665
0.0003144533522
0.00369028185
0.004601293599
0.004829825906
0.005452101696
0.007173416218
0.007092366168
0.006015481411
0.005089810732
0.002983267336
0.005486345503
0.001689841248
0.001407039562
0.001550388641
0.0003089715011
0.003005368526
0.004031858019
0.004862241279
0.004346907435
0.004451987522
0.004339223465
0.005079024173
0.004787031394
0.004018063758
0.002771364567
0.001480576655
0.0009013485337
0.0008276682521
0.0008815900054
0.0003224531552
0.002954623473
0.004972625102
0.01487351788
0.02647116648
0.02268117512
0.009961746559
0.004029658856
0.004493031801
0.005080621787
0.003084683359
0.00197181843
0.0006966611385
0.0005114582366
0.000546604024
0.0002822599835
0.004213085665
0.06349128903
0.1417757712
0.1570457339
0.1457179304
0.15148184
0.09944487446
0.01282058115
0.006513340991
0.005046844911
0.003035400345
0.0004393569406
0.0002562949241
0.0002292645505
0.0006497665218
0.001688890044
0.02473750363
0.124774009
0.122848398
0.1383140043
0.1032971749
0.06296670713
0.03491700644
0.01099167612
0.004214964496
0.002956921009
0.002770181009
0.003045909005
0.001348358756
0.0001200187203
0.003225298876
0.002864650586
0.00488112301
0.004090187454
0.003385404289
0.002179696169
0.004147701777
0.003206723956
0.002003498027
0.001764867258
0.002123422306
0.00222751639
0.002183789573
0.001444006787
0.00338558757
0.001304383744
0.001383455185
0.001518837134
0.001484395079
0.001940204783
0.001962696113
0.001252567173
0.000841282516
0.001012564334
0.0009841349828
0.001301223526
0.001474031389
0.002189260527
0.0008565824544
0.0006582453564
0.000672343654
0.0006880598893
0.0008492371383
0.001181162967
0.001428561581
0.002882972805
0.001599239444
0.002803926441
0.003266369029
0.002655944978
0.001361490411
0.0009503527424
0.001119539832
0.001489196019
0.002767254323
0.005775313114
0.005468293844
0.00569324645
0.005978712111
0.005057358018
0.004231956785
0.004766441182
0.001267244332
0.001638356485
0.001921596854
0.004769598063
0.005177156323
0.00483156857
0.004601746705
0.005019952678
0.003897505986
0.00429645223
0.005022462913
0.001335955342
0.001466971336
0.001766582636
0.004147068626
0.00417879505
0.004055822483
0.004041677922
0.004479480297
0.004773584067
0.004919896289
0.0034258757
0.003013606016
0.001473318949
0.001533954718
0.0001900961398
0.003748133593
0.004314157214
0.004199483346
0.004105261419
0.004663970981
0.005396822498
0.005988047112
0.004145804483
0.002786792328
0.001552519326
0.001490200153
0.001729132313
0.000243893121
0.003580355414
0.00444120422
0.004510568855
0.004373730734
0.004848554063
0.006063321511
0.006053255975
0.005186288455
0.002873920461
0.005255671243
0.001313346012
0.001347841586
0.001417970477
0.0002614767207
0.002902407767
0.003912550989
0.004538044957
0.003803985529
0.003772427293
0.004078203821
0.005137172776
0.005120171625
0.004442263895
0.002729464091
0.002215867951
0.001493933801
0.001258098826
0.001237222897
0.00220896397
0.002711003331
0.003420897488
0.004734470616
0.005203766524
0.004553223677
0.0034994551
0.003397997507
0.00457431866
0.004773914346
0.003094113125
0.003947662162
0.001094382836
0.0008068085837
0.000829485677
0.001041366267
0.00316103137
0.004332691964
0.03644453399
0.08131369422
0.09230596093
0.05831818988
0.02276215611
0.004751714758
0.006054374109
0.003836142113
0.003743126481
0.0009790379274
0.0005953656051
0.0006846954098
0.0003265053812
0.003941732562
0.04578694293
0.1384886386
0.2248314617
0.2083096054
0.1687975919
0.1670626625
0.07801882606
0.01027384233
0.007241649679
0.003827882645
0.0009262635419
0.0003179729501
0.0002238718629
0.0005026752703
0.0004211218953
0.01284644708
0.08613664729
0.09981774937
0.184745691
0.1850729863
0.1160710052
0.08363319892
0.07019749527
0.007803094827
0.004114825432
0.002865265565
0.00308984283
0.001777399845
0.0001316382673
0.002969690853
0.002681817881
0.004165540016
0.003389838676
0.003448337942
0.002082061153
0.004816261832
0.003106018975
0.001954258973
0.001790692579
0.002431772868
0.002616960363
0.002250240818
0.001483843883
0.003320531821
0.001421304766
0.001655527158
0.001714011309
0.001615521207
0.002038365975
0.001933227214
0.00145515903
0.0009754065053
0.001190888278
0.001119126293
0.001425288596
0.001486887472
0.002144950483
0.00109648489
0.0007145180547
0.0007220556643
0.0007436279894
0.0009215649481
0.001244279985
0.001386443543
0.002888499089
0.0008851261665
0.000919038403
0.001035218499
0.0009548992761
0.0008054819305
0.0008540086049
0.001065541607
0.001481146375
0.002934980257
0.002562919946
0.005075354746
0.005489997045
0.005899278121
0.004945155407
0.004446987434
0.003831463884
0.001135307251
0.001718750724
0.002191456133
0.005909491032
0.005431955319
0.005270332293
0.004946995437
0.005268473099
0.003910531851
0.004430575426
0.005023478371
0.001302016141
0.001609052151
0.002432710676
0.004669246647
0.004121750689
0.004294448303
0.004035224632
0.004513921858
0.004865803128
0.005326977996
0.003643137961
0.002818859198
0.001419138529
0.001729330596
0.002432469664
0.003922814576
0.004206485946
0.004047120051
0.003813113098
0.004258375224
0.005250915547
0.006069159974
0.004528698509
0.002736490248
0.001475025271
0.001579223617
0.001854530816
0.0002126497644
0.00324892733
0.004385759767
0.004296136401
0.003976716635
0.00397083421
0.005035877699
0.006040500858
0.005723066602
0.003055905573
0.005145333478
0.0013837986
0.001613265833
0.001664951239
0.00164939879
0.002835799226
0.00379335799
0.004429248254
0.003529808362
0.003155415831
0.003558920387
0.004891087028
0.005232583191
0.004376066911
0.002598055501
0.001623789381
0.001257220567
0.001286240981
0.001467222407
0.002727934727
0.002589451852
0.003199090309
0.003869318234
0.003401119354
0.002805831279
0.002927945149
0.003493001304
0.005121750538
0.005249378997
0.003167752972
0.005532674337
0.001739358494
0.001280591788
0.001147780505
0.001733066294
0.002993508475
0.003004643964
0.005595975876
0.01587433481
0.02268093086
0.01584125443
0.005671263746
0.004392471855
0.00612376048
0.003653931316
0.003604046748
0.001624584806
0.000867806016
0.000800661968
0.0004340960876
0.003652501731
0.003649512075
0.02766835633
0.1231582966
0.1665456158
0.1407140491
0.0897024654
0.02431805921
0.00639879533
0.006268150286
0.003341730512
0.001557510959
0.000754720581
0.0007846696787
0.0003367880605
0.004206739246
0.01919824474
0.1290908453
0.2109736267
0.3249002068
0.2832269558
0.1970564114
0.1845466591
0.03403385841
0.00752839924
0.005295293124
0.002723140169
0.0003699445125
0.0002042386001
0.0003922630296
0.0001671300218
0.004959094753
0.03678950428
0.09345018999
0.1946745065
0.3777011037
0.35132158
0.1675266424
0.129513421
0.03538826727
0.005871166925
0.003440533101
0.003031906832
0.001366301012
9.179975786e-05
0.002733522546
0.002386741835
0.003568743337
0.002761350596
0.003243116349
0.001989623122
0.004836960324
0.002760154882
0.001873695018
0.001794014716
0.002802610924
0.002892989108
0.002219583179
0.001492081988
0.003163137858
0.001506927356
0.001957401043
0.001878888141
0.001709823577
0.002108310022
0.001948740105
0.001593579068
0.001143672882
0.001395318234
0.001265637351
0.001550198078
0.00150384862
0.002217476003
0.001485658021
0.0008692744102
0.0008845353032
0.0008891665384
0.001041267192
0.001325877105
0.001398879457
0.003080419153
0.0008729324814
0.0006395781622
0.0006158229962
0.0005894252152
0.0007131164361
0.0009173898659
0.001080680962
0.001505516561
0.003019619802
0.001266556919
0.002987149924
0.005833494772
0.005638550254
0.003849429743
0.00260695377
0.002301580743
0.001054440398
0.001738634852
0.002495170736
0.002737309867
0.005342255044
0.005536418617
0.005454286823
0.005683501869
0.003771300467
0.004497696864
0.004146781405
0.001241441189
0.001708202789
0.002754246923
0.004352176653
0.004086082799
0.004698978572
0.004244954542
0.004557953528
0.00486814015
0.005582649922
0.003874051936
0.002431562743
0.001407283848
0.002314105474
0.003396042171
0.00426156029
0.00376700423
0.004149645697
0.003712302749
0.004067850816
0.005276327807
0.006432283922
0.005036391368
0.002826230694
0.001337185945
0.001701595293
0.0021679638
0.0020849179
0.003408623556
0.00402987648
0.004099557858
0.003751266572
0.00351103798
0.004242912676
0.005931858737
0.006071517596
0.003226691751
0.004994820078
0.001401500794
0.001769503531
0.001756723516
0.002175873557
0.002753477492
0.003590049091
0.004432291242
0.003671312704
0.002981409623
0.003389096446
0.004500235697
0.005504697613
0.004938623532
0.002631210412
0.001580623611
0.001463326497
0.001548773618
0.00170963828
0.002797914371
0.002544151797
0.002988595707
0.003855691627
0.003365038398
0.002535627298
0.002873516333
0.003541216211
0.005336343939
0.005358582516
0.003351528829
0.005049180306
0.001257461613
0.001245586846
0.001369484409
0.00232465938
0.002825166575
0.002796785988
0.003306885347
0.003743360369
0.003070061609
0.003129461793
0.003707973763
0.004995626034
0.006790986483
0.003635360633
0.003559277252
0.002016551288
0.001290092682
0.001244900215
0.0002878806373
0.003454635414
0.003114852251
0.004315733998
0.03080335038
0.06819860189
0.06641256988
0.04151810402
0.006733612643
0.006017902543
0.005550456695
0.003201279536
0.002828069054
0.0008675324412
0.0007111001555
0.0004671642362
0.003951134171
0.004000360786
0.01179311258
0.1010564594
0.224554412
0.2617023647
0.205338238
0.1016443534
0.01129239898
0.006102168475
0.004549631184
0.004526749927
0.001145062216
0.0009003089351
0.0003036734705
0.004605346201
0.006349716324
0.09480463312
0.1740460625
0.3117443929
0.4033468894
0.3571091311
0.2291200113
0.1205544461
0.03103328364
0.005537964887
0.005405300478
0.0006685668766
0.0002133906692
0.0003314800532
0.0001211380157
0.003296440857
0.01500617633
0.08163147674
0.1921995005
0.3325253615
0.4994738495
0.4865807839
0.2445569309
0.09209219854
0.03233905618
0.004677701207
0.003356653174
0.001453340574
0.0001002114537
0.002462103847
0.00200690075
0.003486751453
0.002304859444
0.002880870218
0.001935495023
0.004154049751
0.00235351764
0.001777588675
0.001773297533
0.003326441505
0.002897152317
0.002113765953
0.001472974865
0.0029683905
0.001562099057
0.00224645355
0.001961910543
0.001735144025
0.002103181258
0.001991022626
0.001632140336
0.001311730168
0.001572905638
0.001382981952
0.001646273768
0.001516699131
0.002393751366
0.001906569693
0.001024345356
0.001068776459
0.001058476585
0.00116484828
0.00138535138
0.001457763101
0.003370313941
0.001063276511
0.0007674143707
0.0007030151629
0.0006397543611
0.000832184882
0.001047934657
0.001159833622
0.001575525451
0.003162060711
0.001071951722
0.001177496073
0.001675498432
0.001630127159
0.001219850528
0.001222164395
0.001196496043
0.001040441011
0.001746240699
0.002835836457
0.001848426374
0.005796504828
0.005546749681
0.005901791358
0.005289841588
0.003477067051
0.00462499735
0.002775612666
0.001214889367
0.001793503042
0.0029903849
0.002871574458
0.004795385056
0.005124829776
0.004753904799
0.004854229421
0.004779939402
0.005664159513
0.003938484652
0.001895814514
0.00138210896
0.002567624023
0.004654452876
0.005688215734
0.003911154991
0.004328811232
0.003811806723
0.004099469483
0.005173776757
0.006426042089
0.005412587767
0.00293525428
0.001229875669
0.001854565963
0.00311912129
0.002449456843
0.003649798201
0.003513136392
0.004225458355
0.003745056979
0.003325513129
0.003908207658
0.005707692478
0.006624875175
0.003606834565
0.004970721205
0.001424626236
0.001999375597
0.001952680452
0.002453029362
0.002930611934
0.003108481288
0.004372678572
0.00379455377
0.00294965169
0.003254305051
0.004245295793
0.00567008213
0.005300818914
0.002689995474
0.001525089299
0.00160790603
0.001807864802
0.002028466963
0.002913941091
0.002516501007
0.002782286713
0.0039274618
0.003924822237
0.00273579623
0.003038462794
0.003653389305
0.005723989743
0.005760230574
0.003628746172
0.005181485494
0.001366454498
0.001601568408
0.001891663433
0.002317993264
0.002795969758
0.002583176104
0.00313643301
0.003337695969
0.002500512367
0.002547125976
0.003951112494
0.005283862954
0.006779185328
0.003578614718
0.003466835214
0.001430861158
0.001169169877
0.001236705429
0.001741791918
0.003150428354
0.002917879571
0.002818775585
0.003902536561
0.005931024741
0.006538318729
0.005073447064
0.00492723599
0.006374428811
0.005433583486
0.003121675092
0.003232032069
0.001223490828
0.001145582964
0.0003319984997
0.003742087125
0.003669159976
0.003374260596
0.02131090541
0.09923350424
0.1337677572
0.1195917384
0.05158528926
0.006285785273
0.005481468686
0.004527334436
0.00449118526
0.001028881371
0.0006767133522
0.0004392959023
0.004357232525
0.003700745238
0.005395026975
0.0540408295
0.1993270658
0.3830870251
0.3718519079
0.2321388862
0.09926937899
0.006404426886
0.004845614097
0.004926464999
0.002927816497
0.00118977543
0.0002709070604
0.002612643833
0.003834465759
0.03166512169
0.1510225995
0.2496148487
0.3823508731
0.4693468558
0.4512301732
0.2948207442
0.1878347406
0.03510361169
0.005514949449
0.004765635578
0.0002954284578
0.0003259442006
9.737247404e-05
0.004428914473
0.005691467579
0.03651068477
0.1047702138
0.2062018199
0.4378709973
0.4268009917
0.2904479597
0.1545994416
0.09972617887
0.01911948671
0.004118880948
0.001865248045
9.631631079e-05
0.002277803767
0.001632545006
0.00432923087
0.001983729899
0.002477406073
0.001959138504
0.003788020614
0.001992573898
0.001690469819
0.001760129297
0.004060672211
0.00270304947
0.001973154584
0.001430674424
0.002789761811
0.001610676409
0.002497910561
0.001955971139
0.001707247121
0.002029156051
0.0020436831
0.001613216943
0.001452964855