/*--------------------------------*- C++ -*----------------------------------*\
  =========                 |
  \\      /  F ield         | OpenFOAM: The Open Source CFD Toolbox
   \\    /   O peration     | Website:  https://openfoam.org
    \\  /    A nd           | Version:  12
     \\/     M anipulation  |
\*---------------------------------------------------------------------------*/
FoamFile
{
    format      ascii;
    class       volScalarField;
    location    "0.2";
    object      omega;
}
// * * * * * * * * * * * * * * * * * * * * * * * * * * * * * * * * * * * * * //

dimensions      [0 0 -1 0 0 0 0];

internalField   nonuniform List<scalar> 
136973
(
8.514456153
2.8579833
7.204930282
3.729714502
2.62307318
2.63133932
2.980249863
3.362816659
16.51344551
3.475774052
2.216543244
2.357395568
2.843277064
2.677497122
2.895423232
2.814734338
3.565790406
16.39513008
9.815654848
4.076218305
1.997988164
2.049341018
2.60979505
2.544555918
2.539249692
2.702091507
2.765332626
2.97739604
2.868237978
2.875995992
3.784110922
10.4952717
22.70079774
7.747032709
3.398379303
1.87072862
1.934586151
2.396992759
2.268024098
2.303319157
2.486257435
2.612659339
2.595243065
2.547218445
2.790994298
2.731167384
3.130534257
2.953800606
3.020841075
2.876644125
3.789605537
7.706728186
27.43298734
15.65808003
8.480705126
3.255574472
1.815055618
1.804998584
2.112901561
1.950438133
2.163030372
2.210746453
2.369843173
2.403844266
2.332683499
2.666693326
2.658857718
2.793447328
2.552377863
2.73593804
2.811003747
3.226818797
3.086908536
3.364532252
3.013737156
2.90814056
2.83746109
3.883547062
8.810377078
18.03080661
30.10693879
12.47314113
8.5790195
3.499601026
1.768669573
1.748624198
1.99651585
1.741505585
2.013021123
1.925026964
2.115944785
2.226826866
2.174845366
2.464879515
2.611288319
2.619311786
2.39677986
2.58600411
2.666801423
3.257440898
2.850725656
2.902572674
2.677850242
2.619598088
2.770924469
3.424321662
3.92048133
3.702806323
3.822246449
2.990562297
2.849632996
2.758299173
3.554840407
9.478028651
15.16555165
43.02397793
22.28002699
12.24097582
7.781100506
3.802991394
1.739988082
1.679050383
1.91680409
1.654747482
1.932121138
1.756457435
1.916123414
2.065748636
2.022096905
2.242497597
2.525492285
2.482842356
2.233368463
2.410675512
2.449315967
3.372724896
2.78840263
2.77067962
2.536358862
2.495903969
2.577908149
3.636150098
3.766986823
3.338687013
3.262191185
2.682063904
2.52649746
2.70238814
4.626020936
5.700683736
5.17859113
5.215148037
3.937940836
2.94257184
2.895556537
2.788493649
3.162479929
12.47613036
17.80262423
34.94828621
41.71187983
18.35647099
12.43758455
7.462864831
4.079304251
1.693856007
1.646624247
1.822964969
1.517485513
1.821535006
1.659989232
1.809158142
1.950831969
1.909150606
2.027900743
2.442267676
2.355872695
2.154428837
2.312187288
2.167143437
3.373377801
2.727820911
2.616281842
2.396299707
2.289549413
2.350202868
3.869593089
3.96568275
3.286179712
3.136418875
2.578191284
2.373274311
2.528390793
4.914172704
5.727503937
4.934063018
4.44528621
3.389974208
2.627723774
2.590229575
2.721832421
7.460941674
12.13845089
10.73989665
9.30686355
6.587043144
4.023823083
3.091025971
3.062998187
3.049478273
2.590773264
20.41455315
29.46465934
37.28381004
69.58377902
32.42060571
18.1353489
13.00769148
7.705572129
3.778972465
1.63822246
1.600169705
1.763398295
1.453126624
1.739344208
1.563066503
1.69325968
1.815916455
1.795632493
1.958986832
2.286348519
2.257119783
2.010441034
2.179236182
1.883514102
3.189690999
2.708521848
2.552837985
2.332075234
2.198202041
2.064483614
3.919545119
4.019590017
3.238065354
2.960958568
2.42660312
2.138949788
2.308880588
6.544811741
7.378546746
5.581110503
4.46124101
3.279738728
2.530133495
2.450929537
2.524031587
8.970115827
15.09236398
11.44725915
8.775799991
5.474133419
3.503401614
2.765358003
2.728730001
3.021521383
15.49865508
31.90674672
28.73987814
23.11516936
14.02420021
8.606353565
4.779757765
3.387943626
3.283687964
3.116810453
5.523688484
39.66506084
55.54886706
59.96361872
83.48940203
75.86045095
32.2630208
19.84605499
13.68331238
8.613635707
3.303168023
1.558740604
1.556143343
1.653270585
1.378166194
1.660947444
1.512914738
1.585769288
1.697032527
1.690270725
1.857536095
2.219136451
2.132254564
1.936742625
2.113346507
1.77617483
3.012639127
2.638146014
2.428859029
2.216370434
2.024441096
1.806733046
3.820755572
4.068674299
3.253518495
2.919880801
2.366838876
2.052847083
2.010064062
6.942265106
7.943048106
6.069048857
4.391887068
3.120464542
2.378469369
2.214595491
2.257981474
14.8391022
21.96344982
17.35039368
11.06476149
5.590024694
3.471293144
2.674395289
2.575977204
2.879620567
18.45595014
35.25941829
36.41117979
25.15194472
12.37854502
7.340403697
4.188219072
2.996901954
2.964208577
3.068467498
27.88848045
54.34199246
63.87537092
56.51702852
35.32218098
23.98382574
14.8015948
5.838390948
3.392005306
3.17234098
2.819698899
7.604985102
60.88548934
86.42502164
102.2153941
129.2690532
111.0412691
73.18417206
39.44888407
19.51977323
13.49695814
8.221951441
4.04646048
1.472564126
1.495730917
1.570925759
1.326765639
1.560406916
1.443761601
1.513885555
1.599950514
1.621551149
1.806391153
2.078485969
1.992291163
1.789543089
1.997536145
1.627557931
2.768689233
2.533934813
2.342304162
2.155173085
1.941805319
1.723355373
3.508724852
3.971682718
3.192524972
2.800713376
2.246851496
1.921670781
1.756308925
7.032910256
8.526269159
6.689250332
4.645172235
3.102834272
2.327136834
2.112683651
1.956396918
16.78395536
24.64038168
20.18719513
12.63839092
5.497046727
3.373548041
2.51767969
2.298008228
2.562810335
28.35024598
51.23536026
52.71748364
38.11880582
16.03627413
7.82591796
4.373771416
2.883291301
2.792797228
2.949815542
31.02194342
59.14497964
71.62281986
65.965658
34.37517781
20.49179309
12.66660842
4.948236216
3.035551843
2.853424879
2.799866604
40.47072677
78.18015653
96.31902416
100.3462638
84.5827364
65.46233604
55.00908358
22.69874752
4.79691317
3.14932127
2.718093667
2.683098825
18.77677602
81.18753613
135.2725632
190.4964933
203.7628566
172.8566923
180.6782658
99.59750361
34.61789275
19.51634089
11.99228012
7.404439582
3.552278242
1.377439701
1.42485283
1.447204303
1.266412381
1.488720537
1.410601796
1.41470915
1.47137245
1.523221711
1.709226583
1.949707975
1.861916738
1.704128891
1.930722533
1.557974
2.506226997
2.375087714
2.167615185
2.022788328
1.795590211
1.643760466
3.159289489
3.679089357
3.052040291
2.720421526
2.185145011
1.866225252
1.668978245
6.899644615
8.514038978
6.771557857
4.705872194
3.025728844
2.22980778
1.964105502
1.660876199
17.3773592
27.40069111
24.20428641
15.89199013
6.129552567
3.414015502
2.476107331
2.178839407
2.258177637
29.50746247
56.2037906
60.76963259
44.70088576
18.28210897
8.083210063
4.580677876
2.66942735
2.467079818
2.64666803
39.9948222
75.86476698
93.61773793
89.17291052
53.32678697
28.24159319
16.13970056
5.12321582
2.883518503
2.649050542
2.708940504
42.52575247
80.75928511
96.43987887
101.0251406
83.42819137
59.21700155
48.84954719
19.10667221
4.089680547
2.846511841
2.424270129
2.590348015
54.06795478
98.34962253
132.2863282
146.3309804
139.1737602
124.551581
113.936796
83.58436006
16.75755958
3.625049852
2.697324365
2.646000809
2.938582997
24.02065824
104.1258739
179.178511
287.7436159
302.6166786
312.9226568
241.2901748
217.229868
78.71696269
29.50741644
19.93755252
15.72376085
9.794198002
3.676618709
1.288985796
1.348769652
1.362744952
1.23162094
1.378178643
1.361671502
1.343844889
1.40303881
1.473298697
1.652291216
1.78259085
1.694585785
1.559820853
1.802446331
1.448076539
2.24999982
2.189539364
2.020784235
1.927649194
1.724599884
1.606607349
2.667857126
3.23528672
2.771347358
2.514385021
2.048885083
1.79243804
1.584598932
5.849713092
7.770015783
6.472265347
4.649250679
2.960989188
2.181457088
1.898807716
1.557766392
16.58828551
27.57920832
24.95094446
16.6359485
6.582438894
3.46343565
2.413842212
2.006402713
1.869063757
28.95562054
60.4015599
72.56138308
57.5022318
24.14761638
9.898789864
5.219299557
2.600520747
2.326157733
2.374162926
39.92441011
79.80567662
101.8997758
100.2735398
62.66952629
32.25170249
18.09317854
5.177931906
2.626428691
2.380904271
2.522112776
52.26640552
96.35303623
118.4686838
124.9072487
111.8658656
89.44973462
66.56236198
22.3324557
4.119341187
2.700548285
2.259419065
2.425259
58.08462191
98.00387952
122.0753427
138.4597312
133.2582377
121.4555316
112.00642
75.61636362
13.78299137
3.181436945
2.383823452
2.340163161
2.875800701
59.6738728
106.767233
132.9116285
155.7675856
171.6452433
157.9382148
130.8432757
120.8109001
69.42101265
6.505875119
3.131038128
2.607546063
2.771296893
2.863776015
22.41795486
115.5957151
213.3702983
324.4768814
383.8359459
605.8923731
351.6967302
398.7582653
184.9459525
58.45808588
35.92621399
26.9103738
21.65880656
16.3464924
8.492166192
1.211677914
1.268966949
1.255416334
1.177384906
1.314812664
1.339239349
1.274999433
1.292912689
1.393967915
1.549090393
1.641439366
1.574686048
1.483226226
1.722170092
1.396272013
2.015202893
1.993622447
1.826401
1.777264679
1.595243355
1.556018765
2.269494822
2.78097422
2.454773926
2.313302761
1.952272286
1.754993546
1.54837326
4.445169032
5.959040062
5.359046175
4.10073204
2.75527103
2.072766554
1.819184682
1.443147448
13.90139137
25.39139835
24.44624084
16.70862116
6.730860293
3.487841859
2.393684028
1.928108116
1.721470476
25.04577046
59.86913618
75.17637152
62.4638718
27.69055891
11.44033459
5.808751727
2.487938396
2.0590597
2.003170277
35.94168356
80.55537542
111.0406242
121.0295143
83.90037115
43.98813325
23.93206229
5.628158817
2.521351307
2.230349284
2.299033403
49.25932746
97.2584772
123.9336336
132.4475857
123.8095547
102.2672878
74.65526922
23.38291171
4.042554785
2.480501357
2.055035231
2.29575007
65.21212603
108.5867339
132.5190516
146.2244443
148.2606492
149.442799
138.7442261
84.40649349
15.78800598
3.070005498
2.256411121
2.105879072
2.749150318
63.07557692
102.0493514
126.4266889
144.6925965
160.7808519
152.8776819
130.4035281
117.9322118
62.16344309
5.288316801
2.671341068
2.239116554
2.465859539
2.737318357
63.79153916
117.2467356
142.9429152
142.8032239
143.2834862
150.8392377
137.2138922
125.8229898
112.0723084
20.98536391
4.345642434
3.052648372
2.667677938
2.821600246
2.821375732
23.94400426
166.364199
257.6177678
395.2421384
430.9685158
599.4409971
554.2837846
502.1185021
266.4716478
104.9295289
65.39083303
41.89279078
27.49322525
16.32425215
6.946408683
1.156418972
1.200168362
1.20212743
1.150297235
1.225845596
1.307429441
1.200263529
1.243101556
1.356959435
1.493883083
1.494811889
1.417983845
1.368242383
1.59022508
1.307847683
1.828384989
1.800165657
1.68217278
1.671076159
1.528361809
1.52539787
1.930190642
2.380813562
2.147242142
2.063837033
1.79494839
1.688607202
1.503687518
3.114676283
4.151604941
3.981807699
3.315320227
2.497882806
1.984642649
1.780043867
1.394315952
9.716536122
19.00713569
19.63945831
14.72817996
6.387952491
3.369272098
2.335868588
1.824963396
1.513172614
19.03536424
53.52806223
74.52797187
63.78602946
29.21931506
12.69619239
6.675397979
2.441040204
1.944949126
1.858679825
27.37352506
74.5485913
111.743136
127.2449291
96.89982937
52.74999127
28.90181372
5.932667137
2.343231507
2.029289938
2.008274362
40.75515335
94.97936266
128.0427671
142.9606186
146.2563128
133.5084335
97.23269439
27.01383257
4.098263941
2.38706867
1.936489168
2.092422472
58.62863301
108.0897936
133.7522103
146.6274011
152.6035037
161.9443097
150.6752377
89.16529446
16.3733738
2.882957491
2.075037883
1.943601304
2.538713212
66.53698412
106.8959433
126.0457816
140.0513672
155.126553
151.4031002
142.4661948
129.2353337
71.94506886
5.389395318
2.51118101
2.079025672
2.176158946
2.491065271
62.07504838
93.53515644
116.2849954
118.8959069
121.4506529
134.8715236
131.4014807
122.6460242
106.5455559
16.50871922
3.450352412
2.468243554
2.247148055
2.462174437
2.607106113
61.28140749
155.7460022
283.563019
267.668866
194.107563
169.6794882
147.6444518
126.0449081
130.6652146
57.28020768
7.572165359
3.832617666
2.872425678
2.805732312
2.721573974
25.49315533
154.2772482
341.4941258
723.5163798
731.8329463
819.6823224
1126.160122
661.7072677
320.9616105
141.0726943
64.2943324
33.85122068
18.75673198
10.25285206
3.347432824
1.12207531
1.145793564
1.147533098
1.108524662
1.186857404
1.291944373
1.159297285
1.171537549
1.30106821
1.397784031
1.393423969
1.327547677
1.31535917
1.519163071
1.26731984
1.674697686
1.629490608
1.522060427
1.529143359
1.416715242
1.467187105
1.715965573
2.073350977
1.904022837
1.872874593
1.690210798
1.635139133
1.47500772
2.188795005
2.839170881
2.844596356
2.57693158
2.171963111
1.838421881
1.718460668
1.334390678
6.11659901
11.6067277
12.81895365
10.22928824
5.200761077
3.043756859
2.247233233
1.773018154
1.423019217
12.57832163
40.34208748
64.78034633
59.02117479
28.69043332
12.84492166
7.025402324
2.359570913
1.775468071
1.635880779
18.61860188
60.85855332
109.270997
129.6541487
104.4088709
61.90688488
35.59970062
6.453975374
2.261395256
1.901156181
1.750816741
28.00043209
79.1051229
127.3605295
146.6217996
154.1331803
151.019536
114.4702605
29.95317696
4.131003836
2.216843175
1.794987067
1.880374701
47.81040546
101.2755145
133.9741215
147.178615
157.1652692
178.021488
175.6009525
102.3185956
18.25039125
2.815657314
1.996539721
1.769788833
2.341946396
61.10889147
106.9070694
128.1528963
138.6589931
151.5559429
157.173988
160.9193225
145.360535
75.96661282
5.221463797
2.320053651
1.922140562
2.036879341
2.319741289
65.26305319
96.58837024
113.5180069
112.2128855
112.392776
126.0759003
128.2438229
125.3415247
119.2967481
20.88224154
3.218296472
2.283686137
2.05962714
2.227493706
2.242332582
60.26732221
82.98289746
118.3775756
125.2893482
116.5267403
114.5009109
117.7262964
119.0321242
125.4574112
49.16605433
5.652876083
2.992604477
2.348578644
2.428959716
2.458946521
58.18745998
142.3648545
478.8992402
742.4089929
625.6901859
312.0486547
278.2571029
149.1083905
142.8125529
87.7632786
15.71501088
4.766792966
3.098526471
2.836141418
2.871064932
22.76149153
120.7824001
332.7449281
1354.608793
1372.811279
1213.183467
1694.513868
988.075127
426.7921642
150.1014385
56.69529414
25.22411635
14.12714388
7.894301418
3.591993232
1.106723649
1.113770605
1.123413245
1.091716328
1.139645966
1.265666445
1.09865487
1.141724931
1.275179395
1.352559578
1.28489096
1.215295314
1.240330239
1.411860032
1.196890519
1.564099095
1.475766264
1.415748141
1.442228758
1.363274626
1.424710238
1.545448078
1.821062258
1.705583061
1.678251331
1.543444083
1.549461207
1.420036397
1.740090944
2.217300566
2.226428134
2.088084681
1.929984403
1.735033095
1.668515101
1.3025363
3.458424247
5.633588701
6.481087781
5.781801647
3.676300859
2.558646425
2.064898365
1.684807184
1.324335051
7.703791614
26.5742739
47.37136533
44.86915079
23.17073494
11.80901461
7.049421184
2.291790473
1.698750789
1.535642018
11.05026756
45.45593298
94.40513682
125.4146607
103.9969058
63.28748198
39.62608989
6.773820433
2.1168539
1.755302954
1.526372495
17.31004756
58.70835192
119.8051193
148.2567106
161.9942086
167.5137656
136.0799218
34.35019819
4.178225846
2.129670893
1.680391184
1.615217486
31.85786059
81.75962521
131.7257716
148.6767816
159.0297916
184.2068055
188.2503078
114.1143893
19.61611024
2.669336132
1.851913196
1.674019115
2.054295258
51.35598243
100.8200558
129.4549052
138.2819299
144.1114378
153.9967663
168.5569967
159.9971503
86.08974829
5.478929012
2.243920158
1.815288931
1.855061173
2.066330889
63.8842721
97.06479004
119.8917695
113.1555214
111.8243103
124.6395444
137.0778418
142.4088112
129.6234661
21.9686995
2.888757061
2.06018793
1.895661312
2.10670639
2.07896207
63.09864333
81.77693984
107.6004018
103.9180732
96.21966125
104.0020673
110.8029239
123.781285
133.2873381
66.10824421
5.611303818
2.694982255
2.14749261
2.197349647
2.15588902
60.7662333
76.74016002
131.3157891
260.9348989
284.1099968
231.3310514
144.8125108
121.9492693
140.0432154
76.75137273
12.25112102
3.669151076
2.548788341
2.486637194
2.635421519
49.43131124
111.3517946
416.1597031
1222.135112
1589.851689
1038.910817
646.912917
314.9238959
153.0439009
108.057826
22.92868348
6.075176966
3.267246042
2.813106875
2.854484841
16.91044812
89.28114221
281.3367135
1218.986844
3367.152787
3214.5726
2532.271751
1622.968649
932.8705057
202.8769685
73.73158427
26.79189354
13.46126177
8.245341135
3.951325319
1.096569171
1.102570745
1.092956459
1.072162812
1.121487715
1.248052887
1.064098976
1.105972798
1.233911571
1.271507127
1.218981637
1.163160939
1.206112633
1.359899043
1.164698787
1.473489551
1.351671786
1.30147245
1.329043991
1.279199663
1.352271493
1.438156126
1.627878723
1.546146846
1.545966421
1.461159325
1.486877912
1.373211134
1.499023556
1.873240742
1.916059916
1.817990464
1.728239013
1.600637015
1.580277213
1.245500036
2.371664419
3.22989298
3.524801139
3.308135761
2.50931068
2.104148939
1.867547641
1.624971544
1.277588434
4.272232217
13.81850049
26.58672067
25.36417861
14.57777292
8.856729015
6.439250411
2.127054562
1.583210324
1.392342516
6.084195583
30.53212497
74.27837928
109.7465058
92.50854376
61.24354871
40.44171378
6.848695272
2.042218462
1.679268522
1.462497955
8.821245197
37.6027161
101.605151
147.0929384
163.7269495
171.8203641
150.8731684
37.69304804
4.173948188
1.987276014
1.568962219
1.44285426
19.82589921
54.75346083
122.6112892
151.4933276
162.7453413
192.2531726
204.443424
131.1266743
21.62033397
2.598679983
1.785954552
1.543366548
1.858983997
38.19964699
80.9362259
129.3072033
144.407105
144.0563933
150.9064729
177.1814902
178.36313
93.95486931
5.654342061
2.108610121
1.714448733
1.766685512
1.912019959
59.15137053
90.7254224
124.2712291
123.3597506
117.5067342
123.3923834
137.5735289
149.653109
146.7994163
26.77553443
2.794906163
1.974525599
1.794371776
1.986791896
2.021035917
62.73292392
82.60824953
111.4103057
102.8557105
95.28498559
103.6084713
116.22021
139.9036895
150.8563209
72.60812286
5.257562175
2.343021417
1.926124214
2.076493593
2.049331868
64.10392237
74.28266916
92.88268036
125.5673171
118.0306372
108.4475254
113.3224618
123.7127837
152.5863954
91.40925477
13.54074644
3.350780067
2.281747102
2.219038562
2.455497594
54.93135009
75.7050415
111.0822831
432.8384824
832.3254971
822.2137563
413.1692583
165.1800324
141.9792029
97.18791134
18.12428665
4.859502956
2.715989865
2.442272613
2.742552027
33.72142187
85.90560625
271.7161409
1080.442695
2398.152085
2413.372385
1489.360637
785.0393628
252.994299
118.0728287
45.20535637
11.1945303
3.653366959
2.868946786
2.746010158
10.93582063
71.30949791
218.8301353
798.8589827
2755.13465
6357.98376
5625.396873
2890.923915
1751.251781
376.695944
126.4405405
44.97589227
14.10814324
7.699886066
3.359435757
1.085063039
1.097704577
1.073512298
1.067100849
1.103276584
1.211197042
1.031212707
1.091736841
1.212731903
1.232967067
1.14059151
1.093943457
1.157769572
1.279033451
1.106963737
1.401563538
1.244720979
1.235538367
1.273900344
1.239937411
1.298947194
1.35896248
1.491063942
1.421467721
1.407660813
1.349462561
1.401043156
1.299684078
1.350658798
1.651347905
1.700876182
1.630616271
1.594481914
1.52912805
1.506634442
1.209327394
1.810634699
2.112708991
2.318493527
2.292875364
2.01120967
1.786796941
1.653071565
1.51702487
1.214433407
2.872763095
6.724750045
10.49263423
10.97682527
7.176072741
5.764612192
4.928314052
1.953145059
1.527344621
1.327867657
3.70972385
17.39798093
51.51372916
81.9381692
65.8761678
47.83405113
39.38943496
6.530277236
1.887827763
1.562044594
1.374187791
5.009241453
23.30315833
78.4388824
136.9876662
162.1802581
171.9987577
157.118378
39.35182524
4.041139941
1.907649436
1.49738377
1.400280958
10.17912674
29.82765421
102.0406602
152.105775
169.1573394
196.5366882
212.9763022
145.7985187
22.54424378
2.442015592
1.676078788
1.47254121
1.683521646
26.11795869
52.49938359
121.5975625
152.2230283
150.8633301
150.4708236
179.1607343
196.3876165
105.9852624
5.885023986
2.047453822
1.642836499
1.641615795
1.884701504
50.01542739
71.40074984
125.1477003
138.3561348
129.3118989
128.094587
139.7491556
163.8109918
161.3697452
30.12256994
2.669196086
1.850691901
1.697522723
1.938777387
1.946937096
59.69582694
81.7150233
115.5592917
119.6910691
109.7322137
117.8535394
119.6320504
147.9630921
161.630161
89.32920736
5.483655435
2.218579992
1.83093804
1.961494008
1.92863051
62.12139699
75.94917794
90.91789769
112.6697073
94.86172126
96.2711781
113.0872738
139.5428741
169.3109205
95.81325719
14.20325375
2.858119129
2.027429749
2.086610554
2.159962144
59.86957652
74.61015588
81.23713391
138.211521
250.723858
247.516361
168.8157412
133.0493807
149.7557473
101.8051232
19.12011415
4.676550266
2.480857939
2.165930095
2.561544029
39.53418106
77.65596371
88.85983674
340.6872659
1335.858901
1860.108252
1314.599968
482.375511
152.9435408
109.355421
42.82947748
10.30262526
3.180544879
2.478424518
2.621955099
20.43734514
70.84803007
135.0585524
728.0828182
2210.904921
3856.802477
3724.458647
1826.974238
677.2500854
162.8688011
79.63086856
36.09635563
5.542569946
3.06623211
2.636938876
2.887860755
49.95979122
135.5563238
444.085424
1464.982015
6279.752962
7056.363801
6594.072913
3957.066354
872.4967433
244.4676424
84.08265408
20.34351401
8.213190926
3.612868125
1.0656586
1.093685565
1.036281783
1.062576742
1.094871657
1.17337635
0.9977883828
1.074918398
1.172361258
1.161737139
1.094508704
1.062036767
1.134443188
1.24094782
1.080135478
1.335258612
1.168582158
1.160140269
1.195399966
1.179177889
1.221305354
1.307793818
1.376558043
1.317309496
1.326553779
1.2965798
1.344771893
1.242275027
1.235381517
1.510773168
1.54754596
1.475859535
1.455513185
1.420125159
1.409259515
1.151509101
1.568338801
1.649161575
1.765548434
1.80361142
1.725159075
1.648511041
1.541994338
1.441064967
1.169377178
2.082883976
3.334025767
5.067972113
5.358121247
4.034805279
3.585634092
3.34581598
1.724336863
1.428743687
1.237283399
2.578190443
8.822080683
29.52120298
49.02836892
36.64523191
31.95900504
32.20541154
5.515205754
1.788854252
1.504594953
1.332241297
3.1669617
12.87329604
55.97113416
114.2323493
147.389334
160.8761553
157.4643032
39.2923887
3.733598394
1.763294941
1.421315427
1.340098717
5.506791331
16.08204504
72.00558935
146.8385276
173.9504408
206.7370222
223.2234833
158.6542221
22.7535356
2.342436879
1.625173587
1.406392434
1.657642403
15.03976152
28.00074874
97.2393342
154.081826
164.9902876
159.8668465
182.9784893
214.0447024
115.2848103
5.928651446
1.940178666
1.567115005
1.585170101
1.869226153
38.53099523
50.73366109
117.1834826
150.3152555
146.8005167
140.0963532
142.3811038
171.5946503
182.5350951
34.42650333
2.611051089
1.797312474
1.640955437
1.906484877
1.912613307
52.43397472
74.44576071
113.8473181
138.0788013
125.1212697
128.5756904
128.6274087
164.5500429
179.6261282
100.4853115
5.797146417
2.062740097
1.707901874
1.907399772
1.879592047
58.58347964
75.75274093
92.29610086
125.8373827
105.0228726
110.6650714
130.5526313
147.6404343
182.4935883
105.4248141
17.66828164
2.711193051
1.915686832
1.968699686
1.989382952
54.23402335
75.21494732
79.97629363
104.7643194
118.3505429
109.2791093
112.7590127
131.8264983
165.1139865
101.5700987
19.33338689
4.316542863
2.183884975
1.985255324
2.356991652
45.76107275
78.02291601
78.13113463
110.1282221
377.4641069
709.5884763
528.6983301
211.8742455
140.738515
113.1573413
51.78151487
11.93326334
2.987735307
2.293001707
2.418495903
25.80675647
69.02877505
87.99809965
181.727618
1087.886032
2309.030921
2353.25565
1453.310674
360.2570724
115.1341454
77.31975383
40.58370477
5.165089825
2.749031944
2.529664437
11.00877912
57.13183979
96.34943842
356.8811203
1633.580396
3731.439765
4390.186366
4302.618438
1775.141683
462.8316607
113.9550625
66.45413843
15.76342879
3.861967325
2.605061029
2.714106611
30.09105991
96.98852549
286.60304
1019.036031
4235.502187
6557.07803
6124.790031
5101.229819
2081.952912
597.2098607
137.2886063
38.52980532
9.867761303
3.672696206
1.031758812
1.081890333
1.000009867
1.054815375
1.081851466
1.11407184
0.979041552
1.064986804
1.148743721
1.127136811
1.032940139
1.011220143
1.093979347
1.178008918
1.033699842
1.269757693
1.101407637
1.1183296
1.158162046
1.149506847
1.1713807
1.263195829
1.296529394
1.237987493
1.239431885
1.215788161
1.267228889
1.170591673
1.152345476
1.396462622
1.430606227
1.360692193
1.373535638
1.368107716
1.33912158
1.122978664
1.444632694
1.443699272
1.580913459
1.589181659
1.583887453
1.547221462
1.431031827
1.339393535
1.133942227
1.778017888
2.21899316
2.568521246
2.662578632
2.402261326
2.485621248
2.303648417
1.576638474
1.377295828
1.196529907
2.024462461
4.697837339
12.54221894
19.72773873
16.62416405
20.05686127
22.33294995
4.112733994
1.622661845
1.408929207
1.264448661
2.418927335
7.916008675
36.87835403
84.22331103
117.8210652
130.2862073
148.8723667
35.97287922
3.193133917
1.687833756
1.378370534
1.309625249
3.390128306
9.939024126
47.85595108
126.8194579
174.7478948
212.8820758
232.4924062
162.3558815
21.7547332
2.14889628
1.546892326
1.343106522
1.625617109
8.289849596
14.99570043
62.80735756
151.9093637
177.0595557
176.7859077
189.7580592
230.6404688
120.7064882
5.805397339
1.888239538
1.529478076
1.536451217
1.859237272
26.35248488
30.60999852
89.36819683
153.5360512
163.9047611
154.9658861
149.982838
181.5339129
200.9722765
36.30979159
2.490733457
1.724565139
1.578505896
1.898540859
1.864247104
42.31150226
62.42745023
93.20144346
150.1585731
142.8237585
146.1480182
139.0677686
177.8562458
195.2844487
118.032587
6.432614108
1.99776408
1.654694106
1.853037854
1.839371423
49.17913317
72.29422404
88.22314326
141.9779122
126.137191
124.5208762
138.6952032
158.432495
194.878026
110.420445
20.52575341
2.526489522
1.776257645
1.91195722
1.932052247
48.47990113
74.84462257
81.38750129
109.8411321
115.6823744
104.2694943
118.8440947
144.0692401
171.8025294
100.3642907
20.40105347
4.34260303
2.062214477
1.850842734
2.172902314
41.18196896
74.38888109
78.12545177
88.42782187
127.6371444
172.0911171
156.8822452
131.4948139
148.5891661
115.8376206
55.63728222
12.26701457
2.690330797
2.036383758
2.202515031
32.33706088
71.51584909
83.93440492
86.1813139
280.9422446
1019.137031
1277.056835
676.0429168
173.0485945
112.3507863
87.69320357
50.54026345
5.546021751
2.621796352
2.29798216
13.00299952
57.63464205
86.42176803
110.3457914
548.3513033
2099.356048
2573.37297
2515.627578
1147.095993
229.7313818
88.34285772
66.34821114
16.53830011
3.626474851
2.509651833
6.087235519
40.61402649
76.49623196
159.1674394
816.0412901
2529.403073
4191.528731
3796.79346
2634.819613
1174.983523
267.916299
79.63454092
41.98322112
6.881754879
2.94284023
3.815663931
16.26163974
66.18010934
170.3156734
512.6799872
1742.4779
5477.047088
5253.936162
3990.364025
2884.536714
1362.927136
291.0615781
69.71099758
13.9577141
3.572663145
0.9841396049
1.056189885
0.9571812041
1.044359192
1.069645151
1.05922206
0.9499185383
1.044551145
1.101792222
1.061457174
0.9990983193
0.984876059
1.073700847
1.147030641
1.01128974
1.199945995
1.050356971
1.062829196
1.098295931
1.097041102
1.105393813
1.213244886
1.223325263
1.168696901
1.190730293
1.177920525
1.220089471
1.124875127
1.107332235
1.33000642
1.355583548
1.286796953
1.281084557
1.279267933
1.255352972
1.076492189
1.366861838
1.330081182
1.461381059
1.460508385
1.470267612
1.463901385
1.362718891
1.281318239
1.089353089
1.600961731
1.638292246
1.797649063
1.929666116
1.954551304
2.03085721
1.84334484
1.443519934
1.287308846
1.139435759
1.73686958
2.888923981
6.17989151
8.757919884
7.960223736
11.72408082
13.49082352
2.791950185
1.541041179
1.360765425
1.231514683
2.007888027
5.250510787
21.4853217
55.54624726
74.47492765
91.06175946
126.1833087
28.08007024
2.506367445
1.551005697
1.311689133
1.257726672
2.412749686
7.145214003
34.06988317
98.74175999
167.4573747
212.8866982
243.296619
161.4597221
18.48519909
2.023646195
1.508478764
1.30823055
1.606316389
4.705341406
9.502923778
41.3624757
133.9253547
180.5704322
195.9987668
207.799299
245.9319903
120.9357318
5.251496324
1.791070553
1.475975789
1.500672487
1.839611462
15.87608214
17.48920728
55.11608182
152.5279032
178.3264659
172.6086958
160.3659945
188.9225649
222.8988543
36.79238265
2.401796381
1.692056362
1.549931755
1.897380728
1.834741616
30.20467104
47.4474362
65.42393423
153.2507155
161.723912
159.3906653
149.3194903
191.0429799
212.2616485
131.0701682
6.645487967
1.919736769
1.595596806
1.829742007
1.816149383
38.18957779
64.64238504
79.2175747
145.3176874
143.8050779
138.9758253
149.5550337
166.3189556
205.1300628
121.0772819
25.01671861
2.450154228
1.718957169
1.871477445
1.848228957
36.9209491
69.88721858
80.6923351
113.7070315
140.8792706
126.143735
130.7726535
148.4574521
175.9369126
97.40800374
20.89858288
4.371943737
1.883640949
1.737485339
1.979181646
33.68016637
69.22675414
79.76633394
90.31953495
114.7815755
118.7773698
119.8439097
128.209425
149.9549044
118.9367875
60.62663783
12.71248706
2.56465892
1.923766841
1.987808243
32.06587262
65.13186288
83.2102989
80.26859939
103.9568281
243.1402261
349.7329285
202.8489929
132.3068568
113.1523032
91.1653744
53.77982733
5.578467247
2.335840484
2.068913697
19.50016204
62.29431309
86.34871792
88.24852986
152.1682767
790.6500172
1436.406975
1402.436769
469.1864974
122.0634663
88.39862136
74.38365934
22.48898896
3.630845555
2.305510339
6.62398189
43.26677252
74.66349114
104.5321195
228.1988759
1367.382058
2354.46974
2255.786739
1787.459848
755.8574403
128.3731307
71.02462365
45.05507199
6.796311228
2.923056874
3.782760357
20.83520644
62.53219423
117.085455
343.4479449
1425.549356
3013.835838
2939.177401
2330.48195
1601.989208
686.6393044
147.9868917
57.64094919
18.0270561
3.495608796
3.618264783
10.53467291
40.27298327
119.799763
323.4261737
1070.097628
3870.818716
5100.973837
3543.378272
2953.35582
2070.668822
638.5967935
132.2733818
29.11405167
3.306007789
0.9354432694
1.019513033
0.9206973742
1.0241317
1.043184976
0.9963651823
0.9356750743
1.026760238
1.070945623
1.019043264
0.9499404038
0.9398708284
1.034352054
1.089600098
0.9708015706
1.127941627
1.000995655
1.029891574
1.068856917
1.071039073
1.061925453
1.156451253
1.157608184
1.108014097
1.122733181
1.114034898
1.151023404
1.066420025
1.065773285
1.264173176
1.286563429