/*--------------------------------*- C++ -*----------------------------------*\
  =========                 |
  \\      /  F ield         | OpenFOAM: The Open Source CFD Toolbox
   \\    /   O peration     | Website:  https://openfoam.org
    \\  /    A nd           | Version:  12
     \\/     M anipulation  |
\*---------------------------------------------------------------------------*/
FoamFile
{
    format      ascii;
    class       volScalarField;
    location    "0.2";
    object      p;
}
// * * * * * * * * * * * * * * * * * * * * * * * * * * * * * * * * * * * * * //

dimensions      [0 2 -2 0 0 0 0];

internalField   nonuniform List<scalar> 
136973
(
-38.13766932
-11.65575433
-77.41660326
-92.62254205
-6.865941504
-25.09044791
-24.69178697
-103.7935445
-154.5849592
-116.5583185
-4.799504237
-14.91309495
-15.64922452
-33.03152625
-42.55100282
-35.40936386
-122.2380609
-139.292724
-165.1858675
-127.419422
-5.626252718
-10.68653259
-8.289860726
-19.46543671
-32.17802322
-21.35875722
-39.99126812
-53.48025118
-68.5233488
-42.37879063
-131.96517
-160.2795908
-86.6894639
-195.1178499
-143.8323745
-8.161078697
-10.24702827
-6.656876761
-10.27690623
-17.89434082
-10.92556091
-25.43599886
-39.22524987
-41.79511362
-25.47710603
-47.76495128
-75.4279955
-63.39679888
-83.8356775
-46.86467889
-151.2780599
-205.7887706
-71.14855615
-94.3299496
-214.981188
-152.7063596
-10.01821995
-11.30690454
-7.895427521
-8.741211846
-14.67305332
-8.122560401
-14.22707421
-23.67690754
-24.07792488
-13.44593531
-30.00940774
-48.92514329
-48.06905256
-50.58840295
-28.37844582
-54.69093381
-95.41050957
-64.00238051
-84.12014067
-97.0588353
-50.11126706
-166.2243748
-232.1036622
-98.30737303
-54.78751498
-111.4012759
-221.5276237
-156.7830455
-10.84813447
-12.20342855
-10.6858259
-12.56299603
-13.63587901
-8.177117432
-11.22043095
-19.33632905
-18.32645339
-9.254258905
-17.38332876
-31.17865003
-33.18167976
-29.28985447
-15.13649815
-34.58245168
-59.9784769
-55.60736451
-56.86701765
-56.98541835
-30.26219758
-61.312502
-117.2527528
-94.85029504
-60.29000985
-104.7054775
-106.3462532
-51.68764406
-180.4463777
-250.4847527
-129.589559
-66.37565855
-56.7430776
-116.2015551
-225.9254003
-157.5863344
-10.48538964
-12.17361996
-11.51214642
-14.02558573
-14.08706493
-11.16291179
-14.32518189
-17.68481703
-15.92178513
-7.747959396
-12.74426496
-24.6925326
-25.31594104
-21.60928674
-10.05901854
-20.82033771
-37.54660931
-42.06850946
-40.61001125
-33.23399973
-16.20997143
-37.97412618
-72.02568601
-68.09359797
-60.5461747
-65.36651296
-61.30327006
-31.26046389
-69.88151643
-136.5109767
-131.0646744
-63.32334144
-84.54913339
-116.2459972
-110.9051846
-52.13892141
-200.2658147
-276.8348495
-149.1630282
-75.4629785
-86.53447758
-62.94855182
-119.348067
-227.2401587
-156.4184072
-9.127543117
-11.17938119
-11.09625827
-13.77629259
-13.30546086
-12.00504027
-15.87554746
-16.86024567
-15.64733183
-11.85131053
-13.06535437
-21.80188917
-21.66215365
-18.05304977
-7.988510034
-16.09732742
-28.64777957
-32.6004608
-30.3341486
-24.08353825
-10.52866608
-22.55224174
-46.5704858
-51.6707738
-49.77502377
-46.18699852
-35.98504462
-16.67558262
-43.58650863
-83.48173843
-85.23218157
-70.32114926
-68.23469344
-71.36071772
-63.62032626
-31.57045308
-79.97205624
-158.0701454
-158.4301529
-103.5357485
-69.52479504
-101.9649351
-121.7380182
-112.1648705
-51.53297452
-223.3221358
-316.2467656
-177.8811415
-111.8296892
-116.702283
-78.10896604
-65.68099968
-121.0479022
-225.9581944
-151.8304615
-7.067140778
-9.354478008
-9.571475313
-12.35081334
-11.9549099
-11.51494765
-15.46148045
-15.36373191
-14.36596089
-12.77266608
-17.7699195
-19.91007329
-19.43099737
-17.28551771
-12.24830174
-20.32462421
-25.359013
-27.44519301
-25.27535635
-19.69215585
-8.211435789
-18.92311777
-36.3305427
-39.29522893
-39.20480714
-33.7684008
-25.68888629
-10.66619826
-28.11694628
-54.96666031
-63.89465787
-59.87316677
-55.93788234
-50.06370509
-37.29996096
-16.88747438
-50.46217021
-98.91908814
-103.6873987
-88.56468195
-75.10777962
-75.2644906
-74.25033602
-64.25976031
-31.16624143
-91.27789629
-181.8740444
-188.0428764
-154.6747675
-81.23658141
-96.22049631
-108.9067467
-123.0056468
-110.172535
-49.86049749
-247.2089581
-365.3431843
-225.5394575
-160.6590159
-150.292051
-122.680337
-75.30336459
-66.07667277
-119.3859075
-220.5511906
-143.2589549
-4.591509468
-6.95068807
-7.399484899
-10.11046277
-9.83778893
-9.856285918
-13.57152455
-13.27675068
-12.68420264
-12.22594282
-17.29147198
-17.56563571
-16.98390067
-15.59563705
-13.22033191
-21.30199905
-23.3383975
-23.55338318
-21.93594356
-18.55409571
-12.50294576
-25.13768127
-31.61454095
-33.17788184
-32.32739885
-27.97615781
-20.79339973
-8.232340355
-29.93219759
-43.55422566
-48.26264439
-47.64388144
-43.48398295
-36.0083411
-26.36995171
-10.80110065
-31.45711918
-67.78978547
-77.31403442
-74.09063574
-65.4619299
-60.4059095
-51.85990956
-37.63941612
-16.48120225
-58.30280796
-113.7355607
-125.1757903
-112.6356784
-90.67614041
-81.46381831
-78.25437414
-74.6776558
-62.82463804
-30.02370681
-101.1031501
-207.7470738
-222.3623612
-196.591358
-131.1186476
-101.2701058
-106.354015
-109.4893139
-119.7915778
-104.4544215
-46.64902637
-271.4589424
-417.3184965
-287.3326402
-215.8452314
-204.3280867
-179.4165307
-106.0558936
-75.58142026
-62.61126241
-115.994502
-214.0459315
-127.6943765
-1.886867654
-4.240996022
-4.85214027
-7.373767839
-7.270081039
-7.561123075
-10.79323052
-10.60226684
-10.31719273
-10.45651882
-14.89174636
-14.63415248
-14.30133606
-13.60359665
-12.61626678
-19.70874693
-19.89567682
-19.82350386
-18.72723177
-16.60310111
-13.58723002
-25.05883625
-27.27013597
-27.96864113
-26.93123056
-23.92393396
-19.42360574
-12.42706757
-30.55176718
-37.89961019
-40.17904231
-39.39020506
-36.00983832
-29.69101686
-21.21802497
-8.252320089
-27.65411634
-53.29664453
-58.81216113
-58.00947791
-53.33778685
-45.9949624
-36.98820893
-26.44835521
-10.44971415
-37.30719136
-75.7510685
-93.07837199
-91.29678222
-78.71799981
-69.97766482
-62.34548292
-51.91888163
-36.39744755
-15.9315399
-64.82106657
-130.1779018
-147.4403657
-140.7530137
-115.1354286
-93.93258342
-84.33886417
-77.88430173
-72.32277525
-59.99634538
-28.09409177
-108.8535656
-231.498882
-260.5324107
-243.6996223
-205.1779406
-120.4397311
-123.9801334
-106.0961353
-103.9293436
-112.1559745
-94.77021389
-42.10676557
-290.4406744
-467.8860033
-354.4236517
-301.2630257
-292.8924514
-224.980491
-127.0923122
-103.7335428
-69.98863156
-58.47323746
-110.82344
-194.1110234
-117.758874
0.950334668
-1.403356153
-2.114579307
-4.420067457
-4.46040144
-4.913553942
-7.611351601
-7.622137694
-7.556894739
-8.053018744
-11.50104643
-11.26650961
-11.22689852
-10.99622957
-10.7449184
-16.30876899
-16.06095147
-16.02202748
-15.50807102
-14.39026733
-12.99700986
-22.13225211
-22.55503598
-22.90844346
-22.11673938
-20.26600549
-17.32469193
-13.52905023
-28.71067037
-31.67339677
-32.98197758
-32.32923072
-29.74573257
-25.18502563
-19.67399661
-12.04958826
-33.90421058
-44.01233286
-48.19962532
-47.91666699
-44.03005661
-38.2485862
-30.37329829
-21.06179369
-7.703500575
-36.66427896
-59.42362025
-70.26436627
-70.99115536
-64.49789154
-56.01428222
-47.02885676
-36.77689634
-25.25877219
-10.31638228
-43.802395
-86.04666196
-107.372711
-110.480244
-96.65712538
-82.02552643
-71.7114094
-61.81513491
-50.03917394
-34.66219614
-14.36016367
-70.33735171
-143.9685787
-169.7305539
-169.2764823
-147.0873473
-112.4556747
-95.27505456
-82.57132235
-74.42238778
-68.09384952
-55.26469443
-25.24746203
-113.1945244
-250.1730867
-297.5029112
-294.3318571
-271.7545883
-177.8317363
-145.5986827
-123.5875761
-96.35571316
-93.06246953
-99.56403959
-81.51051929
-35.465265
-302.3123425
-506.3971876
-416.9481101
-390.5636342
-369.5041767
-283.3755752
-139.6682494
-81.8658756
-99.40199028
-68.55447536
-52.94867182
-94.67748655
-165.3336943
-92.77156537
3.841190174
1.491460522
0.7091586936
-1.425213772
-1.581126493
-2.118387576
-4.340454937
-4.532533708
-4.603995036
-5.317038831
-7.866596144
-7.75023611
-7.967785117
-8.061498612
-8.23842854
-12.21621832
-11.89039976
-12.06234721
-12.0601896
-11.58579627
-11.11641604
-17.63233855
-17.47621077
-17.87757508
-17.52950624
-16.67673613
-15.0219942
-12.98398816
-24.35321767
-25.33586677
-26.31056711
-25.97624626
-24.35469068
-21.33813072
-17.54129691
-13.05586533
-31.47176421
-35.81750343
-38.68528818
-38.73202883
-36.21316095
-31.46078452
-25.66569338
-19.27491306
-10.88701254
-38.14227787
-49.18336292
-56.17280537
-57.86355489
-53.49462422
-46.64625662
-39.19593665
-29.99812505
-19.76856198
-7.674847702
-45.68519898
-66.4527314
-79.7979353
-84.80131361
-78.11529648
-67.51370015
-56.85209917
-46.35772062
-35.19843765
-24.19885264
-9.334224116
-55.06265924
-95.44403466
-120.2434963
-128.4400542
-118.2599453
-97.58256919
-83.24737386
-70.1015234
-58.95438853
-46.93984584
-31.00763615
-12.92779856
-73.57160932
-152.444226
-188.3994874
-197.0627163
-181.4565369
-139.547339
-107.642462
-91.80094161
-77.59559157
-68.8612852
-61.19800535
-48.96119657
-21.21801001
-113.4375225
-260.711253
-329.163797
-345.5908449
-338.7661586
-269.1040927
-165.6759039
-149.5703592
-108.9459829
-79.89776548
-74.44851497
-78.95629263
-66.69227979
-24.8200814
-305.1870767
-526.8309156
-470.6997435
-466.2747183
-446.8308188
-394.3448514
-109.9934122
6.266650551
-114.082161
-104.4667042
-75.3714809
-54.57542659
-89.5910513
-157.94215
-39.27102423
6.695252878
4.394613272
3.526979429
1.554948156
1.295969514
0.7249544654
-1.14526721
-1.482198287
-1.638362466
-2.477601405
-4.284078169
-4.30251058
-4.685192198
-4.983788446
-5.409694349
-8.062529415
-7.81101135
-8.164465196
-8.535828104
-8.47522717
-8.584325124
-12.76003919
-12.39816326
-12.93105239
-13.03595384
-12.91565246
-12.16146562
-11.16225803
-18.79779019
-18.85736189
-19.78489148
-19.88736254
-19.26284282
-17.60578211
-15.26355648
-12.63972859
-26.13144639
-27.62101084
-30.00889739
-30.53840512
-29.26042568
-25.84121143
-21.80624642
-17.2054567
-11.94918578
-33.73479695
-38.56362176
-43.76957104
-46.02686655
-43.87769995
-38.36739251
-32.27342822
-25.1584458
-17.95208356
-10.12033578
-41.93062959
-52.6906256
-62.39746265
-67.78870588
-64.91608488
-56.43770958
-47.69318359
-38.45410275
-28.45627419
-18.97559929
-6.362331819
-50.93011248
-71.61826215
-86.63093154
-95.38403286
-92.60267612
-80.59561977
-67.46396547
-55.36782311
-44.20463274
-33.02996367
-21.19476485
-8.682720976
-64.56843397
-100.3500386
-128.8887123
-143.1268926
-137.9123175
-116.8806478
-96.19398523
-80.18510065
-66.04096543
-54.59114581
-41.87668774
-27.39088903
-10.41885903
-72.95475014
-155.2649879
-197.7741804
-217.5523243
-212.9682891
-172.4964445
-121.4172469
-98.72982547
-85.22108554
-70.26393223
-60.46763164
-53.17614988
-40.25275744
-15.57901902
-111.2632823
-258.237913
-350.9226356
-394.8191264
-407.4247554
-378.0975139
-208.0964271
-158.64086
-124.2394381
-75.48210584
-51.63085421
-51.14781864
-59.78295854
-40.69285659
-12.42512216
-303.0644073
-528.265403
-508.8579416
-556.0439553
-546.2124436
-545.6623839
-131.5676946
82.45270024
-107.0540157
-150.0069511
-100.3474182
-60.60033552
-74.32084648
-147.1285888
-83.37228967
9.486117904
7.259258937
6.31604032
4.500005361
4.129023909
3.548194004
1.935522142
1.482606247
1.278363424
0.3809603468
-0.9052701749
-1.045628385
-1.526160599
-1.940807161
-2.50380986
-4.149502231
-4.005857586
-4.456968797
-5.075216683
-5.24652935
-5.739902737
-8.103391304
-7.68625749
-8.329092631
-8.763200221
-9.115053372
-9.000708476
-8.674950452
-13.20884938
-12.7508696
-13.66024841
-14.15436717
-14.31360594
-13.74082611
-12.4360918
-10.9858799
-19.63548183
-19.6806103
-21.68655319
-22.61895603
-22.56817295
-20.58082372
-18.13601037
-15.08065588
-11.77383333
-27.02551881
-28.71943839
-32.62988462
-35.4299409
-35.15934903
-31.30945867
-26.78875803
-21.44609416
-16.1790788
-10.30521356
-34.81546141
-39.54398113
-46.82326384
-52.75258808
-52.93641094
-46.83875202
-39.44410932
-31.54085847
-23.68712149
-16.53249002
-5.928123318
-43.89475063
-53.58717334
-65.21575836
-74.44607504
-75.84993745
-68.28926313
-57.02977188
-46.23233247
-36.46438501
-26.64456448
-15.68261563
-6.175737541
-55.94884981
-72.51078451
-88.66345653
-101.2796261
-102.6682253
-93.51606772
-78.53422497
-64.28351533
-52.47718645
-41.24842424
-29.49656021
-19.25979165
-7.098900522
-66.56452512
-101.863242
-128.8346166
-147.5622614
-151.3452084
-134.5162689
-109.4037265
-90.20434854
-74.54209088
-60.21792717
-48.46773788
-36.49236632
-21.83992689
-8.081442472
-70.72517946
-149.7070385
-194.5196889
-224.8240153
-234.1222634
-204.7501202
-140.4121907
-102.5289186
-92.01701969
-76.36586248
-62.01550263
-53.37910164
-45.17245597
-30.76667825
-7.34044892
-111.0958257
-246.5136797
-345.7398996
-439.1586118
-486.0103132
-487.0262754
-290.3782111
-170.7773374
-131.9299304
-82.83457864
-52.34298697
-47.5854112
-58.41974393
-53.00901005
-25.6413685
-295.7157748
-522.3869089
-523.3054465
-644.6460962
-735.7175525
-737.4844786
-234.7051086
46.92931248
-5.448487972
-154.8932599
-111.9774045
-63.18466702
-97.04429908
-166.5072823
-111.3012704
12.19170594
10.07947623
9.050236257
7.398654663
6.915093173
6.318512614
4.908690748
4.358886322
4.123938906
3.204913032
2.252965018
2.008278723
1.47342347
1.004363173
0.3834763021
-0.586582187
-0.571349447
-1.057975153
-1.80581095
-2.092368179
-2.832588461
-3.885641243
-3.513400446
-4.164803261
-4.821002587
-5.416534833
-5.735015367
-5.852197801
-8.134073179
-7.373451652
-8.179989991
-8.942806843
-9.623049172
-9.858819439
-9.277949476
-8.655911136
-13.57116372
-12.59612553
-14.19251001
-15.3336593
-16.22347673
-15.48275987
-14.28750462
-12.45496382
-10.41033653
-19.94231391
-19.58531612
-22.22857291
-25.2170154
-26.58444461
-24.4531684
-21.74430511
-18.01385458
-14.25535174
-10.53166644
-26.78805597
-28.26372326
-33.4909217
-39.19693991
-41.98207783
-38.35862711
-32.88706356
-26.26932089
-20.20088855
-14.64472778
-6.25030161
-35.25890401
-38.51905997
-46.67473581
-55.83651462
-61.04200648
-57.60561429
-47.84917934
-38.18384797
-29.7643615
-21.86812896
-13.26843767
-5.848726952
-45.73286571
-52.18420927
-63.39446493
-76.06616041
-81.61066848
-78.66511377
-67.52013135
-54.20280005
-43.46862727
-33.79093447
-23.45319229
-14.75764805
-4.929811406
-56.79258622
-71.22499145
-84.27909085
-97.84104206
-104.7446557
-100.0135969
-88.07019788
-72.12681677
-60.32846847
-48.55190141
-37.10321934
-26.25502855
-15.37373178
-6.043407714
-66.06059288
-97.10072423
-120.2495698
-140.0131735
-151.1432648
-145.3317695
-120.6725345
-99.01739792
-82.9760545
-67.16315609
-53.64521668
-42.47512029
-29.50305934
-16.1267743
-5.133121309
-70.56019403
-140.8634629
-172.8630681
-212.0386895
-244.4271652
-232.5689088
-161.9411657
-105.2332715
-96.20200676
-86.56782082
-70.73074111
-58.63866154
-50.19190738
-37.89961895
-14.87008273
-110.8953629
-246.195607
-320.2953916
-434.5841637
-599.9211372
-640.6067046
-385.9439108
-212.9405086
-142.0835498
-122.6386875
-88.70166644
-80.19070682
-85.26579002
-73.86487442
-34.31864209
-278.6834836
-506.0096032
-520.5129473
-682.8181662
-895.8061789
-1112.979214
-429.237496
-54.29394084
57.11996057
-168.6256998
-126.4038077
-84.17270525
-122.1239671
-207.6630433
-126.0620076
14.78443844
12.8547126
11.70096756
10.26107173
9.648677451
9.024318016
7.80709401
7.159275053
6.894697302
5.952513884
5.237617267
4.90026926
4.341359217
3.841474332
3.201409423
2.643836193
2.531160215
2.036127293
1.240450807
0.9102648713
0.06439366113
-0.1626849064
0.07610766395
-0.5389919275
-1.287781997
-1.968978059
-2.535785374
-2.938551892
-3.674260378
-2.842487332
-3.492825487
-4.411550801
-5.30675065
-6.084523836
-5.981933975
-5.939702637
-8.23568484
-6.736217521
-7.805218212
-8.941670872
-10.38796746
-10.66389055
-10.3478876
-9.482028827
-8.324447691
-13.7968587
-12.0057521
-13.30581596
-16.01245948
-18.52907337
-17.90600672
-16.73591432
-14.44573053
-11.90346699
-9.589190887
-19.43496117
-18.70278617
-21.63410764
-26.3784202
-30.89474308
-29.72880147
-26.59766989
-21.56966846
-17.013124
-13.15074353
-8.940043986
-26.74426565
-26.55164661
-31.76088101
-39.78741209
-47.27481561
-47.61374044
-40.44488659
-31.98584569
-24.73956964
-18.56762515
-12.37646104
-5.771552411
-35.42225757
-36.19323693
-43.07737669
-54.32636895
-63.40091266
-65.66217797
-57.93988583
-45.20747639
-35.69365385
-27.46579299
-19.17082799
-12.24685144
-4.762641065
-46.08255781
-49.8107078
-57.63389237
-69.53753251
-79.65350737
-81.27231945
-75.21546234
-61.75725085
-50.43175052
-39.89845747
-30.25539923
-20.91757911
-11.63629969
-5.070302605
-56.82327346
-67.32915473
-75.99693656
-86.90241268
-95.43210142
-97.88222418
-90.84780029
-78.07245355
-67.21998781
-55.71173528
-43.97778475
-32.95857575
-21.42551954
-12.93036384
-5.97575552
-66.48403852
-92.31604872
-104.9705601
-120.7220139
-139.8105768
-144.2522636
-126.7270093
-105.2541931
-90.87000002
-76.41490655
-61.54440139
-48.80877609
-35.97563465
-21.29336181
-9.78005067
-71.90727883
-141.4710079
-147.0762074
-164.8673292
-232.7917397
-266.4568613
-193.9184487
-115.1059571
-104.3021665
-100.2259394
-86.38253857
-71.00052129
-59.63247612
-45.72991747
-19.59637982
-107.9800112
-247.9948451
-322.1097652
-376.296689
-589.770903
-872.1381317
-567.94486
-264.8373695
-183.5364082
-186.109361
-145.7413002
-120.9083513
-115.8052309
-90.59453248
-40.19351022
-257.7303651
-470.7258032
-482.0325637
-689.1827628
-912.6903202
-1175.26946
-574.2312506
-199.6505502
10.34151862
-261.7819727
-169.2367018
-108.4785872
-133.2796936
-227.2201837
-133.3729567
17.24510423
15.53645154
14.22993107
13.09546286
12.31871547
11.65206343
10.67125389
9.897870072
9.599033898
8.61548225
8.126552251
7.684065136
7.110587609
6.569775047
5.917613404
5.639251033
5.406006018
4.906448684
4.102525235
3.752706115
2.890020424
3.12328868
3.191588734
2.604833399
1.851792661
1.170236665
0.5196032748
-0.0253873956
0.1581833865
0.8526138621
0.3289976113
-0.6176970549
-1.485286679
-2.551094007
-2.725053757
-3.063906619
-3.591480732
-2.051978256
-2.680091052
-3.633747981
-5.223091252
-6.235888341
-6.45003021
-6.304830316
-5.791189707
-8.47820598
-6.125056825
-6.34747734
-8.247189595
-11.25598024
-11.8314287
-11.79193148
-10.7395346
-9.177816157
-7.828357994
-13.2303367
-11.43400709
-12.14830669
-15.07079134
-20.4540979
-21.30637627
-20.3708264
-16.98141208
-13.74887763
-11.15724704
-8.659965214
-19.34640777
-17.35946011
-19.78136417
-25.31340613
-33.33188362
-36.89205631
-33.17682018
-26.36824331
-20.34903636
-15.75008368
-11.81110823
-7.99685456
-26.30649216
-24.34207748
-27.45280291
-36.6378668
-47.25435256
-53.70986552
-50.18823674
-38.25491536
-29.61994499
-22.80892001
-16.50613488
-10.99052934
-5.126589175
-35.21968467
-33.78343506
-37.30805142
-47.19408895
-58.75447231
-64.96634124
-63.85546052
-52.07357599
-41.61131587
-32.65082018
-24.59216751
-17.07230471
-10.29959989
-6.645367048
-45.92251181
-47.27553067
-50.44358246
-58.45004965
-67.75748982
-75.03992757
-74.62486305
-66.65849026
-56.57412628
-45.8706929
-35.87625564
-26.69070996
-17.07338352
-10.53719299
-5.990967811
-56.72270954
-64.72222669
-65.95810101
-70.53271944
-79.94813653
-86.65174126
-86.80351872
-78.93993879
-71.66473664
-62.92989839
-50.8634092
-38.9347551
-26.95399526
-16.56784159
-8.760215874
-66.54050693
-92.76949862
-92.32138465
-90.10937844
-106.9791953
-126.0134692
-120.8075263
-107.6760812
-97.6844521
-86.97192844
-72.68991007
-58.24253316
-43.11570471
-26.77974188
-10.00637771
-70.78362665
-146.4243986
-153.3008031
-104.4553605
-133.5730247
-271.2262248
-250.6507679
-140.7833936
-123.845164
-117.1626617
-105.310243
-86.93979803
-71.91736001
-55.00871672
-24.59956192
-102.6530957
-243.3042484
-325.9000512
-382.7181525
-415.3329282
-643.5908748
-666.1276367
-410.2928536
-280.9959506
-246.7824257
-190.6856036
-149.0702223
-135.2401338
-106.7622084
-46.16032704
-236.0918361
-428.0053118
-417.5720447
-620.2556049
-1048.015577
-1285.679852
215.8961842
644.853239
-177.0832305
-374.9670221
-195.4477079
-127.8919256
-142.9157296
-236.9077105
-148.814031
19.58535395
18.1121282
16.6325079
15.85419935
14.91716946
14.18182214
13.50699421
12.57878097
12.24049549
11.20151954
10.99927887
10.39779073
9.812151405
9.204105466
8.534418442
8.519592506
8.167395073
7.633841803
6.826862455
6.447483174
5.590863448
6.115518743
6.025224077
5.425658618
4.706789473
4.04078964
3.393757692
2.806342217
3.471946275
3.921725236
3.437518639
2.516250867
1.814185776
0.6805031732
0.3871857347
-0.1689144373
0.3991534449
1.650036683
1.273459209
0.4558026217
-0.8876745887
-2.308290535
-2.759415057
-3.098199432
-3.042838412
-3.81308031
-1.523293508
-1.217783195
-2.391188928
-4.991609297
-6.45114793
-7.065776611
-6.988542915
-6.204768799
-5.501368486
-7.941884446
-5.943437416
-5.206516629
-6.138905237
-11.27937706
-13.47079385
-14.1362901
-12.43683262
-10.3309044
-8.753061573
-7.311537748
-12.99526814
-10.64977162
-11.30986567
-13.71597321
-20.48432258
-25.84343326
-25.7194391
-20.9055254
-16.13007023
-12.85911283
-10.25443592
-7.90901574
-18.8288119
-16.03180159
-16.15094093
-21.63943252
-31.6348803
-40.805149
-42.35625348
-31.89327286
-24.30885641
-18.82292214
-14.24442817
-10.61435829
-7.499951638
-25.95787148
-22.2387269
-22.25171619
-29.77434511
-41.89190339
-51.21478849
-54.66645663
-45.01149473
-34.68264513
-26.8941919
-20.49377914
-14.67928069
-9.95052365
-6.975256899
-34.99481498
-32.06698845
-31.56152551
-37.74941634
-47.33465913
-56.764324
-60.02543298
-55.4188145
-46.88817239
-37.53515905
-29.21047579
-21.73772416
-14.52281933
-10.1844546
-6.812911699
-45.85831873
-46.18018253
-44.10369533
-46.23532166
-53.53302569
-61.92937022
-67.6501304
-65.2375935
-59.68030631
-51.73642338
-41.34803628
-31.54178009
-21.86089148
-13.84887247
-8.33218838
-56.69727315
-65.08550842
-59.97459001
-51.62372379
-53.04971245
-63.95648324
-72.87152496
-74.59695562
-72.5827707
-68.17907599
-58.00457425
-44.9926585
-31.89954872
-19.8105232
-7.773016479
-62.12839198
-97.07649194
-96.29745095
-61.95176071
-45.67481066
-74.09776826
-93.01815452
-96.69233137
-103.4420301
-97.70435688
-85.41964088
-69.24801573
-51.48910721
-32.24491501
-12.756604
-66.86544929
-146.3495185
-172.0494633
-121.3229725
9.074073186
-66.19740673
-246.697368
-202.5622676
-151.5686412
-139.6977542
-125.5215597
-103.8426918
-84.48401865
-63.49248341
-28.36887535
-95.65347241
-231.0466281
-316.4971724
-397.2037483
-431.6858449
-209.7198655
205.5458615
-166.5425268
-445.3242104
-302.3828314
-228.0372981
-177.5108726
-153.4823925
-120.7630157
-51.35397067
-214.3338039
-384.3457943
-354.7936704
-500.6540691
-1028.804972
-1524.050938
-840.2927129
2653.658302
-248.4494262
-505.4219516
-254.2109426
-166.5987914
-162.53768
-250.8702135
-159.8458778
22.42095593
20.73027722
19.11686366
18.42310945
17.43865373
16.64134572
16.26027903
15.17498978
14.81218452
13.70824854
13.8925879
13.05701087
12.46824348
11.7665743
11.06752294
11.39504506
10.90606411
10.29028492
9.461058795
9.027559537
8.158183752
8.977347622
8.756150962
8.084217441
7.384635015
6.714036467
6.080350148
5.48231043
6.469237517
6.657433327
6.142940011
5.255786647
4.699747377
3.618462636
3.285430097
2.640212984
3.813993337
4.638436369
4.36029756
3.50713329
2.565253972
1.097458873
0.6138791423
0.009852896263
-0.2391477094
0.2620429787
2.206685201
2.548754375
1.72955333
-0.0964681465
-1.941401252
-2.75894917
-3.342121081
-3.143364966
-2.897986773
-3.423225854
-1.531753358
-0.2529550111
0.2385944759
-4.034491376
-6.633241911
-8.233372906
-7.985750503
-6.820609712
-6.024847893
-5.231134342
-7.627893393
-5.478314349
-5.262950206
-5.168143908
-9.80179918
-15.41805382
-17.87613417
-15.32168799
-11.94624337
-9.791508661
-8.22259824
-6.772480168
-12.50984966
-9.99799264
-9.183364023
-10.98635996
-18.26034283
-27.82197105
-33.93464551
-25.55288154
-19.29911649
-15.05603008
-11.77399179
-9.41428718
-7.495334774
-18.58388895
-14.5220207
-12.27075562
-16.00924532
-26.85253769
-37.40471752
-45.59306242
-38.96929502
-28.58029837
-21.9810563
-17.00034751
-12.82957511
-9.905821423
-7.588477308
-25.71264409
-21.22523973
-18.38354751
-22.21617075
-31.74119777
-42.7063951
-48.87678664
-47.51728286
-39.51801493
-30.80307871
-23.93840054
-18.24500617
-13.0076482
-9.604587222
-7.457544732
-34.97339192
-31.90797096
-27.87961915
-29.13918166
-35.78698865
-44.19680699
-51.64817928
-51.68357351
-48.54393597
-42.07581926
-33.47298769
-25.66786713
-18.52974534
-12.65496603
-9.097708246
-46.11255705
-46.79223725
-41.83927138
-35.32406371
-35.701707
-43.62393205
-53.71429951
-58.97205459
-58.20290344
-55.02011692
-46.62565296
-36.44892625
-25.93389854
-16.52218488
-8.790225987
-53.64801252
-68.61682371
-62.25171134
-38.63772591
-21.29620635
-22.81037271
-41.48045584
-60.2468832
-71.67413149
-71.9641189
-64.81168768
-51.65209172
-37.18884897
-23.4049211
-9.048022081
-52.51777344
-97.90871827
-109.8810406
-72.69262817
10.56676168
32.9648103
-23.45103895
-67.36454501
-99.621585
-107.1886816
-97.78571185
-80.58540951
-60.26187043
-37.80414556
-15.52261389
-61.98649146
-141.2848557
-183.1123432
-168.0253375
-12.04348925
143.632521
84.67149885
-171.1355268
-193.8900487
-162.5634153
-147.1751231
-121.3300026
-97.31879718
-71.87129677
-31.80356701
-86.60290272
-214.2955726
-295.0235318
-378.7412117
-502.11681
-404.2929218
337.3597175
1110.881852
-470.6506901
-413.0359378
-271.4508883
-208.3825362
-174.0548494
-134.7146894
-56.30161598
-193.9234281
-339.8292796
-297.7360546
-397.7659093
-721.3534727
-1391.127417
-3499.57879
1454.051552
-230.9186384
-756.6878527
-362.9003299
-218.2809968
-192.6519856
-271.7202036
-169.1591554
25.86635032
23.64322499
22.0669993
21.05320498
20.00335909
19.19204832
18.74983562
17.71124243
17.33101848
16.13896266
16.76435885
15.63133544
15.07011829
14.25841729
13.50797311
14.33525118
13.66736819
12.92868374
12.04714734
11.5287506
10.61579781
11.8575353
11.50925328
10.69289226
9.98315071
9.265648926
8.609824472
7.993785442
9.355986102
9.305080651
8.71100225
7.808443601
7.310263985
6.307808937
5.945333456
5.276585772
6.864330783
7.256074837
6.944875484
6.003697694
5.385048652
4.074222932
3.622400395
2.920750998
2.501337398
3.828276006
5.256704941
5.34526734
4.602235755
3.463822536
1.631722969
1.015400792
0.07840903888
-0.1341251897
-0.2013573557
0.4999709415
2.172620134
3.412177321
4.371492185
1.132298928
-1.388856058
-2.964744882
-3.795161675
-3.337690695
-3.150187481
-2.819685569
-3.179140163
-1.283898193
-0.5711729407
0.9203379478
-1.764224686
-6.592083609
-10.281478
-9.759540497
-7.818758003
-6.582150846
-5.760710631
-4.894733388
-7.244767118
-5.173084619
-4.3554348
-4.085740416
-7.928265778
-15.69531134
-24.40733436
-18.94719267
-14.32852685
-11.32785451
-9.070724618
-7.641440367
-6.470766734
-12.44012196
-8.999431462
-6.627386579
-7.122535841
-15.00820442
-24.99486673
-36.40114869
-33.44547635
-22.95625348
-17.41079106
-13.68459861
-10.7517092
-8.826911078
-7.238222298
-18.3358565
-14.14819069
-10.05328721
-11.00244635
-19.16620952
-30.08298016
-38.63412608
-40.99813192
-33.45413089
-25.08226736
-19.47260624
-15.30856162
-11.67430311
-9.27142806
-7.684550529
-25.67986391
-21.44150158
-17.00566121
-16.66897248
-22.98391094
-31.18071291
-39.85830992
-41.96967478
-40.4826604
-34.61058327
-27.06982991
-21.16954887
-16.04026747
-11.6627624
-9.200610136
-35.54613079
-32.70649342
-27.59646494
-22.91870903
-24.67835839
-30.88801688
-39.30091028
-44.83168341
-45.23718264
-43.51349072
-37.12396566
-29.42673118
-21.78328706
-15.49808148
-10.16519635
-44.59957546
-49.21353367
-43.6624931
-30.22654348
-19.98652952
-18.36921676
-30.30521146
-45.39528392
-55.23191428
-56.16615863
-50.80263599
-41.1410004
-30.28155738
-19.27977666
-7.91406089
-47.46527241
-70.46638774
-71.32712488
-44.29300537
1.703139901
24.1819751
12.96943168
-25.22428524
-60.67643732
-74.80959695
-70.96857873
-58.81206342
-43.16873227
-27.22772565
-10.60382973
-41.25289835
-93.98878174
-119.8688877
-103.449565
-12.20512881
102.0773772
105.478631
3.706706194
-78.06341002
-107.6147944
-109.0721204
-91.7304435
-69.2759526
-44.14171754
-17.57002334
-55.80280558
-132.8021584
-181.5221752
-199.6000658
-120.3827824
100.5894765
107.3404977
167.4612772
-185.1495313
-178.8405324
-166.845725
-140.6649315
-111.3476962
-80.75201998
-34.82392205
-76.56630803
-193.7232424
-266.5086597
-343.9689016
-468.6243436
-642.6033766
-747.3141682
799.535422
-421.1103891
-518.4295256
-337.13123
-246.1389198
-198.1162316
-150.3031952
-61.36828964
-177.6545991
-298.4103765
-243.3849276
-318.3047255
-504.0989468
-1023.455045
-2814.844413
-2426.681773
-480.3594396
-1070.473987
-529.0472892
-287.345408
-230.5635833
-299.8208088
-180.7552784
29.2542429
26.92052189
25.3104073
23.89196811
22.84266807
21.95814751
21.32272444
20.25933745
19.89281393
18.56841437
19.50816926
18.16897606
17.61341754
16.66635448
15.82820282
17.32532414
16.43028455
15.54679001
14.58043136
13.94846236
12.96024667
14.85902448
14.36337881
13.35519027
12.58065672
11.76206654
11.02921595
10.36987181
12.30451134
12.03548682
11.27336544
10.33356526
9.786807875
8.824731482
8.404183978
7.721356938
9.800232942
9.837268459
9.367000967
8.326691185
7.84613449
6.724952607
6.289742194
5.574107705
5.084934757
7.065670793
7.900753443
7.620945278
6.806725356
6.138856758
4.54612597
4.193734409
3.174045727
2.713035996
2.455748005
4.014638306
5.342444622
6.125243111
6.635004701
4.521164414
2.230034969
1.466048708
0.02001000038
-0.006325987553
-0.2749017332
-0.2705351509
0.6452391464
2.29750363
3.177745583
5.139864952
3.834081865
-0.2673768109
-3.632053067
-4.516464706
-3.841630038
-3.343529873
-3.10624737
-2.631829936
-2.94377823
-1.18669258
-0.3622296616
0.8108547275
-0.5801589346
-5.375791864
-14.9844792
-12.11682504
-9.367985151
-7.60506144
-6.17861071
-5.413273847
-4.72732033
-7.267965558
-4.510049797
-2.878690703
-1.788744713
-6.459139385
-14.36997788
-26.83295051
-26.90624203
-17.35748788
-12.97639769
-10.37143634
-8.378628012
-7.269416119
-6.147396033
-12.19915607
-9.062882091
-5.450426454
-4.275896948
-10.57118817
-19.93348503
-30.15656292
-35.6970451
-28.40553813
-19.94217544
-15.35527746
-12.45122945