/*--------------------------------*- C++ -*----------------------------------*\
  =========                 |
  \\      /  F ield         | OpenFOAM: The Open Source CFD Toolbox
   \\    /   O peration     | Website:  https://openfoam.org
    \\  /    A nd           | Version:  12
     \\/     M anipulation  |
\*---------------------------------------------------------------------------*/
FoamFile
{
    format      ascii;
    class       volScalarField;
    location    "0.4";
    object      k;
}
// * * * * * * * * * * * * * * * * * * * * * * * * * * * * * * * * * * * * * //

dimensions      [0 2 -2 0 0 0 0];

internalField   nonuniform List<scalar> 
136973
(
0.02633531736
0.02249950085
0.02483502837
0.02964054828
0.02247678135
0.02252863156
0.02257272425
0.02335511845
0.02892948775
0.03559288692
0.02246420401
0.02250396602
0.02254767945
0.02251123986
0.02260807701
0.0225650723
0.02875611745
0.04730297556
0.0376988933
0.04382814938
0.02242585206
0.02249248608
0.02250512801
0.02248372403
0.02257857272
0.02253744391
0.02252941193
0.02261867575
0.02261907108
0.02257707602
0.1638894394
0.3330867386
0.1362373896
0.0516368631
0.04410399784
0.02240637818
0.02245363262
0.02247818673
0.02247776421
0.02253104938
0.02249396125
0.02250693649
0.0225834585
0.02258550957
0.02254664037
0.02256285766
0.02300664936
0.02267984819
0.02265017034
0.02257231582
2.185610136
2.739495983
1.239706908
0.4327600218
0.05466922286
0.03501246093
0.02236424693
0.02243473444
0.02243818941
0.0224415502
0.02250408984
0.02246685733
0.02250516919
0.02253741353
0.02254127543
0.02250491043
0.02249297568
0.02261511738
0.02258441347
0.02261123304
0.02254259909
0.02809754901
0.02835637963
0.02450457777
0.02300967959
0.02267613896
0.02255912636
6.594254405
5.228676447
4.509430315
3.33805276
0.6967164716
0.06828394324
0.02643757619
0.02234101482
0.02239594042
0.02240609358
0.02242672455
0.02246004245
0.02243013363
0.02247440489
0.02250484021
0.02251128585
0.02247588228
0.02249869257
0.02259004033
0.0225574838
0.02256994157
0.02250386633
0.02246103615
0.02264018299
0.02263989012
0.02262262809
0.02263314864
0.02253348384
0.03121384106
0.03001875975
0.03008870403
0.02847962621
0.02331090964
0.02269176473
0.02252685823
6.482171308
5.870198093
5.018198911
5.069045098
4.713540464
1.154613856
0.06655783973
0.02403701049
0.02229695741
0.02237592376
0.02236753046
0.02239320722
0.02243531477
0.02239741399
0.02246056031
0.02246383461
0.02246911021
0.02243372703
0.02247343131
0.02253957009
0.02250693416
0.02253382892
0.02247117001
0.02247248258
0.02261299262
0.02261305709
0.02259712138
0.0225919861
0.02250011431
0.02247817391
0.02265770004
0.02268750865
0.02271272211
0.0226645547
0.02264043023
0.02249960956
0.02918553552
0.02851275616
0.02826696821
0.02986243017
0.03062470947
0.02378391875
0.02270628389
0.02246822506
4.507537922
5.010981503
4.807764889
4.572918106
5.07495167
5.318723725
1.152051002
0.05725475496
0.02388426182
0.02227098688
0.02233586514
0.02233454411
0.02237724211
0.02239381439
0.02235978232
0.02242641853
0.02243370501
0.02244093552
0.02240569844
0.02246143646
0.02251547414
0.0224818779
0.02249383084
0.02243284977
0.02246449438
0.0225610464
0.0225602349
0.02254282074
0.02255038019
0.02246167226
0.02248382535
0.02263166592
0.02265619757
0.02268265896
0.02263695333
0.02260687665
0.0224858275
0.02262548131
0.02272063437
0.02279525772
0.02285160278
0.02281150339
0.02270410195
0.02265354413
0.02244447943
0.02612808327
0.02748131208
0.02790324121
0.02898993828
0.03018577938
0.03146116782
0.02395416153
0.0226939725
0.02259267359
4.433624025
5.04298981
4.775056648
4.457796826
4.356135377
5.161499435
5.597003868
0.9742900695
0.03964512621
0.02531920757
0.02222749057
0.02231393703
0.02229817306
0.02234472316
0.02236979443
0.02232930104
0.02240818001
0.02239841626
0.02240052587
0.02236387625
0.02242726112
0.02246768263
0.02243500343
0.02245919634
0.02240154563
0.0224497862
0.02253386106
0.02253432413
0.0225167893
0.02251230187
0.02243014971
0.02247059566
0.02258134671
0.02260020914
0.02262282811
0.02257824982
0.02255692206
0.02244819305
0.02261064463
0.0226881585
0.02275526152
0.02281114892
0.02277869138
0.0226746363
0.02262356297
0.02243592997
0.02290943887
0.02335176914
0.02375135607
0.02433306822
0.02388396652
0.02328953129
0.02286158253
0.02264108877
0.02256209462
0.02736507524
0.03310683948
0.03887528663
0.04764757393
0.04552179595
0.04000164663
0.03549542503
0.0236727149
0.02268922562
0.02262998049
4.611286703
5.244429589
5.439049118
5.657224705
4.632005363
4.345128807
5.429955514
5.449987144
0.5401751315
0.0327254202
0.02653749451
0.02220185079
0.0222715273
0.02226591839
0.02232757075
0.02233000154
0.02229170587
0.02237281857
0.02236907187
0.02237321334
0.02233719305
0.02240339978
0.02244425832
0.02241172336
0.02242068583
0.02236388309
0.02242726085
0.02248123105
0.02248345788
0.02246524081
0.02247121422
0.0223932044
0.02245212783
0.02255265561
0.02256901132
0.02259277359
0.02254927083
0.02252541427
0.02242946586
0.02256780184
0.02262299781
0.02268601379
0.02273200259
0.02270839535
0.02261693236
0.02256826633
0.02240663106
0.02282646955
0.02322021229
0.02353845925
0.02410722069
0.02383466637
0.02329380456
0.02283468089
0.02261337168
0.02254966352
0.0245709116
0.02886471484
0.03506362004
0.0432523454
0.04033650364
0.03101505086
0.02743108561
0.02277400684
0.02264695879
0.02258653773
0.0311162088
0.0643263468
0.1224838996
0.198971689
0.19733207
0.1181825873
0.09598333786
0.0328475048
0.02317217067
0.02267873991
0.02258112721
4.901279716
5.135356109
5.675044627
6.515685388
6.611057471
4.837530627
4.535716196
5.79656975
4.681644453
0.2293053322
0.03122075149
0.0262743373
0.02216195367
0.02224634464
0.02223246461
0.02229409051
0.02230515874
0.02226398561
0.02235221627
0.02233877725
0.02233446868
0.02229623383
0.02236620481
0.02239851536
0.02236746382
0.02238733356
0.0223341455
0.02239861987
0.02245426886
0.0224582728
0.0224401445
0.02243613872
0.02236327116
0.02242427022
0.02250049905
0.02251342006
0.02253445389
0.02249391769
0.02247722064
0.0223865751
0.02251610807
0.02258423503
0.02264269876
0.02268868531
0.02267166473
0.0225880036
0.02253974316
0.02239263358
0.0227715378
0.02306925896
0.02330652227
0.02373796816
0.02360880226
0.02322733065
0.02276664017
0.02255921968
0.0225101965
0.02412653719
0.02784883015
0.03196288142
0.03928762272
0.03959302677
0.0317305992
0.02765201663
0.0227387516
0.02260511961
0.02257497062
0.0296047616
0.06396692669
0.1266383831
0.1966217236
0.1906093108
0.1036978654
0.08930312085
0.02494282299
0.0227115408
0.02264273248
0.02253982099
0.03457088037
0.1027831769
0.3280735482
0.6507792113
0.7299776498
0.4660603618
0.3703594823
0.07446197707
0.02984995129
0.02290076533
0.02263751843
0.02254215613
5.18198732
5.258200125
5.315855135
6.064407172
7.285462917
7.294378965
5.447749313
5.045024059
5.985205065
4.109625143
0.08799431542
0.03049042319
0.02486129063
0.02213986679
0.02220203518
0.02220230246
0.02227412144
0.02226675651
0.02222718194
0.02231690843
0.02230787786
0.02230746413
0.02227141048
0.02233466384
0.02237611187
0.02234544271
0.02235043866
0.0222974216
0.02236866326
0.02240204402
0.02240895587
0.02239089588
0.02239568717
0.02232725604
0.02239208043
0.02247099128
0.02248334713
0.02250520981
0.02246587551
0.02244717462
0.02236142724
0.02247752318
0.02252288225
0.02257794798
0.02261252026
0.02260100593
0.02253037393
0.02248580404
0.0223596782
0.02265459187
0.02290216808
0.0230697987
0.02347016568
0.02346102892
0.02319324893
0.02273455725
0.02253179205
0.02249118761
0.02384499425
0.02709721343
0.03058333744
0.03638773798
0.03686142616
0.03159397902
0.02744678935
0.02267507756
0.02256310249
0.02252377216
0.02670577125
0.04889606826
0.09678086592
0.1543879266
0.1733612613
0.104106379
0.08923683549
0.02480398172
0.02267948848
0.02259187149
0.0225253374
0.03449598994
0.1111265148
0.3459791988
0.6115111645
0.681999783
0.4218120051
0.3430839718
0.06905604446
0.02309211701
0.02266868401
0.02260435752
0.02250724694
0.03182413773
0.1278837076
0.4766713555
0.8777067625
1.111073829
1.262147021
1.018513879
0.2862843408
0.03764638413
0.02958400074
0.02271038338
0.0225969132
0.02250772183
5.938830756
5.909402154
5.35831895
5.259808265
5.971429731
7.874355659
7.318990548
5.474963943
5.406446506
6.129723313
1.653319542
0.04322282095
0.033587544
0.02499186983
0.02210637603
0.02217763049
0.02217223647
0.02223701954
0.02224025431
0.02220255866
0.02229356341
0.02228117808
0.02227041207
0.02223164816
0.02229731864
0.02233221014
0.02230296567
0.02231824456
0.02226952448
0.02233150931
0.02237566823
0.02238451566
0.02236679383
0.02236327044
0.02229894372
0.02235528225
0.02241893276
0.02242884576
0.02244927361
0.02241416196
0.02240127562
0.02232057402
0.02242800964
0.02248491693
0.02253687528
0.02257368864
0.02256569426
0.02250100409
0.02245865414
0.02234169867
0.02259478974
0.02280949093
0.02292711415
0.02319933541
0.02321138274
0.02307827974
0.02266672316
0.02247883661
0.02244844217
0.02331338447
0.02562904226
0.02808286553
0.03268590745
0.03489215172
0.03071606507
0.02719880503
0.02263841046
0.02252223594
0.02250252918
0.02624314217
0.04521540002
0.08737821832
0.137693235
0.1609180001
0.095265619
0.08478394709
0.02459463484
0.02262052663
0.02255735803
0.02247434915
0.02911437529
0.08021440107
0.2561742231
0.536020992
0.6629423661
0.4215145872
0.349880088
0.06714108149
0.02303056748
0.02263768946
0.02255348427
0.02248944952
0.03152561679
0.1442474085
0.4669932458
0.78632336
1.049579492
1.192825607
0.9296716159
0.274276453
0.0304689235
0.02278879742
0.02261552683
0.02256606795
0.02247255988
0.02699951824
0.1046820116
0.5164854697
0.7678248142
0.9892599533
1.537203445
1.55073161
0.8849959801
0.1011578172
0.03225576152
0.02520886133
0.02262290574
0.02254698388
0.02249958241
6.348799162
6.972929489
6.243108422
5.006631164
4.728819879
6.152515141
7.968854395
7.159317207
5.387520903
5.888168251
5.944294226
0.3644915848
0.0385794513
0.03546875086
0.02890948749
0.02208997915
0.022138626
0.0221449101
0.02221077371
0.02220363739
0.02216674737
0.02225578334
0.02224707182
0.02224339689
0.02220890988
0.02226034705
0.02231086104
0.02228166827
0.0222831578
0.02223389552
0.02229925157
0.02232502026
0.02233668889
0.02231989423
0.02232391884
0.02226406044
0.02232275913
0.02239008522
0.02240057195
0.02242124931
0.02238707252
0.02237222547
0.02229697639
0.022393896
0.02243137877
0.02247809194
0.02250417076
0.02249858181
0.02244399262
0.02240696372
0.02230665051
0.02250819338
0.02267557429
0.02275554841
0.02299044605
0.0230804923
0.02300602741
0.02263140061
0.02245213846
0.0224249496
0.02306717726
0.02489357527
0.02683212837
0.03065786175
0.03228320585
0.02994162116
0.02677575673
0.02257508383
0.02248235235
0.02245315339
0.02454027812
0.03777077199
0.06955364503
0.1086235782
0.1398556511
0.08961326204
0.07885495089
0.02428848359
0.02258841507
0.02250816715
0.0224529343
0.02840347804
0.07378806574
0.2314888566
0.5021948795
0.6272170186
0.4037630856
0.3468343547
0.06301569279
0.02295299691
0.02258253582
0.02252334097
0.02244227456
0.02721865334
0.1032088559
0.38872014
0.7611167513
1.037832003
1.218875182
0.9742985435
0.2654358538
0.02978429672
0.02275538303
0.02259183196
0.02251905287
0.02245540382
0.02448506411
0.1203457311
0.5003610236
0.6789344585
0.899396404
1.454791799
1.437499929
0.8257558677
0.1049166283
0.02355191362
0.02270649408
0.02258135106
0.02251683412
0.02246655832
0.02762354629
0.05380914883
0.4936362211
0.703469488
0.5976729345
0.8855596719
1.629896596
1.55814566
0.3720240606
0.04114678795
0.03228799194
0.02302300345
0.02256569715
0.02253042771
0.02248037601
5.844524794
5.998577515
7.501264632
6.349795713
4.382495964
4.592094268
6.810784128
7.608231024
6.478037965
5.486645678
6.434828738
2.70219678
0.07496636292
0.04334668642
0.03438385116
0.02206207124
0.02211008826
0.02211811526
0.02219406464
0.02217567524
0.02214520593
0.02222290112
0.02222299201
0.02220824057
0.02217043294
0.0222227446
0.02226898339
0.02224005396
0.0222519538
0.02220790928
0.02225801174
0.02229990827
0.02231320615
0.02229683944
0.02229363005
0.02223710912
0.0222880901
0.0223391628
0.02234810628
0.02236829058
0.02233817721
0.02232913195
0.02225784657
0.02234605473
0.02239578214
0.02243967245
0.02246935295
0.02246567528
0.02241477115
0.02238081505
0.02228555907
0.02246182466
0.02260277081
0.02266486434
0.02282161249
0.02286124949
0.02287052553
0.02255559257
0.02240240665
0.02237992397
0.02280318851
0.02404888892
0.02539160331
0.02811516557
0.030598174
0.02883089144
0.02628929948
0.02253931871
0.02244219918
0.02242788997
0.02413847581
0.03428581791
0.0607144778
0.09391959392
0.1238452
0.07930482567
0.07187093975
0.02404527684
0.02253173619
0.0224755573
0.02240503021
0.02584811091
0.05528406234
0.182044874
0.415405681
0.5889278369
0.3834342886
0.3319601855
0.05689709496
0.02286538938
0.02255162541
0.02247363606
0.02242013091
0.02661537866
0.09530287805
0.3646318196
0.7418700342
1.025464915
1.228990726
0.9886706967
0.259347515
0.0294271338
0.02269318157
0.02253865293
0.02248968923
0.02240891355
0.02372914978
0.08611489272
0.4432438446
0.6763475502
0.9167641937
1.491987338
1.49862692
0.8470308228
0.09332006393
0.02342611953
0.02267843713
0.02254486258
0.02247481914
0.02244767806
0.02285983967
0.05276889027
0.516472161
0.6219901166
0.5298978305
0.8067639335
1.522898094
1.412651271
0.340645453
0.03465138985
0.02284611308
0.02264082406
0.0225325082
0.02250052473
0.02244967841
0.02936277494
0.03034207179
0.2253441262
0.8350777638
0.41377984
0.2724185236
0.961064824
1.490708359
0.9883448141
0.1619250209
0.03318420935
0.02722167288
0.02264283234
0.02255179664
0.02230402175
6.930171629
5.176747527
5.738544058
8.096476843
5.746730813
4.184109753
5.027881428
6.894501366
6.420803818
5.338538748
6.058626503
6.978800648
0.498712698
0.04921860536
0.03917689987
0.02204848545
0.02207303775
0.02209356475
0.02216341813
0.02214125538
0.0221101948
0.02219974337
0.02218549229
0.02218115368
0.02214967709
0.02219673216
0.02224825632
0.02221899777
0.02221876583
0.02217335361
0.02222538583
0.02225182883
0.02226731651
0.02225219405
0.02225590997
0.02220357065
0.02225415381
0.02231087524
0.02232171737
0.02234175329
0.02231290114
0.02230068472
0.02223569011
0.02231723463
0.0223488369
0.0223866283
0.02240724905
0.02240438955
0.02235973651
0.02233251046
0.02224981542
0.02239485103
0.02250493624
0.0225468818
0.0226652934
0.02275010825
0.02278032024
0.02251307681
0.02237514186
0.02235308588
0.0226629117
0.02359014034
0.02460848096
0.02672936048
0.02831060295
0.02788273523
0.02570501219
0.02247725895
0.02240490209
0.02237765387
0.0233254428
0.03022173968
0.04948904521
0.07445073616
0.106222083
0.07172140623
0.06478097144
0.02371665484
0.02250001894
0.02242815056
0.02238102379
0.02519241292
0.04946184048
0.1579999996
0.3742132973
0.5439452356
0.358912275
0.3116725089
0.05237755108
0.02279119061
0.02250044003
0.02244649186
0.0223752981
0.02500164008
0.07177243384
0.2937101847
0.6999441493
1.01239639
1.234146021
1.001253023
0.2306454496
0.02803706353
0.02265907305
0.0225115185
0.02244486888
0.0223876955
0.02364794449
0.07924930444
0.4251802116
0.6835497772
0.92744802
1.506089342
1.526253023
0.8528563714
0.09060162675
0.02338512805
0.0226206424
0.0225074061
0.02244656872
0.02240353381
0.0227769093
0.04061827667
0.4288799578
0.6226828772
0.6132235791
0.8210050671
1.589024852
1.489977093
0.3352769292
0.0341157524
0.02280774565
0.0226151169
0.02249514386
0.02246218547
0.02242354265
0.02269162763
0.02530884126
0.2565439045
0.7370515821
0.3548866983
0.2606031584
0.8890608837
1.374146282
0.9440865958
0.1664848629
0.02365678487
0.02274758028
0.02257353291
0.02251657025
0.02227870836
0.03114269904
0.02881428618
0.05968505022
0.7611877692
0.7139294861
0.1548962495
0.2271333748
0.8612364633
0.7467926004
0.1796107908
0.0475054008
0.03497621167
0.02322292017
0.02260040298
0.0223742639
8.62749226
7.647454542
5.044074273
5.756030216
8.187129114
5.465734131
4.161780814
5.186232028
5.685069435
5.055078222
5.489739444
7.7442825
2.747959517
0.07755121637
0.04227223535
0.02202506414
0.02205029213
0.02206913956
0.02212426652
0.02211248589
0.02209119161
0.02218525183
0.02216257296
0.02214805287
0.0221124295
0.02217513457
0.0222077084
0.0221777931
0.0221884109
0.0221491659
0.02218341881
0.02222846109
0.0222447393
0.0222300578
0.02222713019
0.02217759669
0.02222193923
0.02226154757
0.02227266094
0.02229195732
0.0222661007
0.02226072338
0.0221979788
0.02226975999
0.02231466014
0.02235055614
0.02237608124
0.02237434347
0.02233214084
0.0223067303
0.022227204
0.02235918186
0.02245168281
0.02248400465
0.02257123213
0.02258939483
0.02263905989
0.02243732287
0.02233016076
0.02230760169
0.02251773385
0.02312582261
0.02379353459
0.02512956418
0.02700405078
0.02680675799
0.02522311267
0.02244372949
0.02236563474
0.02235036182
0.02309842426
0.02813465669
0.04357957214
0.06429017694
0.09079794689
0.06260059121
0.05917260712
0.02349641164
0.02244657056
0.02239770425
0.02233327848
0.02386941515
0.03872365393
0.1211890508
0.3005705562
0.4951085969
0.3316208666
0.2917861102
0.04629889119
0.02270529495
0.02246880823
0.02239782348
0.02235252715
0.02429472107
0.06338700934
0.2548159279
0.6562532946
1.001147004
1.239379484
1.007643325
0.2089036361
0.02744930277
0.02259673103
0.02246290209
0.02241721743
0.02234483643
0.0231565833
0.0613658924
0.3689940564
0.6850977875
0.9565917519
1.54381556
1.583836326
0.8486669349
0.0784460713
0.02318844443
0.02259165356
0.02247076682
0.02240585676
0.02238291388
0.02274169472
0.0390886772
0.4083458202
0.636400007
0.6469180948
0.8309020777
1.615628467
1.521045562
0.338753952
0.03384347284
0.02274998291
0.02256284867
0.02246394408
0.02243386065
0.0223839088
0.02265845788
0.02451270148
0.1923842062
0.7322585141
0.4234162944
0.2812264955
0.8848249901
1.448437171
0.983371136
0.1586507595
0.02355863317
0.0227165197
0.02255507178
0.02248442077
0.02224071261
0.02261964959
0.02295647665
0.05440650789
0.7075628945
0.6015639232
0.1326191891
0.2210484678
0.8359322601
0.7364860737
0.201223242
0.04162975901
0.02286174707
0.02265489281
0.02255994611
0.02234715441
0.03636820733
0.03260149576
0.03062166053
0.2665521632
1.181959535
0.6726066259
0.1341167185
0.2122658768
0.1938001166
0.1159225524
0.04086207594
0.03601461269
0.02759218744
0.02268659633
0.02248970418
28.3274627
13.04514171
7.37654218
4.749548004
6.190714933
7.126067439
4.890720144
4.070889087
4.358981695
4.480904731
5.106865808
7.026487226
7.812050448
0.3153391648
0.04218296962
0.02201301743
0.02201751848
0.02204655142
0.0220958043
0.02208018606
0.02205666817
0.02215023441
0.02212187987
0.02212094516
0.02209340822
0.02213685021
0.0221874803
0.02215692977
0.02215701641
0.022115507
0.02215384732
0.02218488595
0.02220082199
0.02218730894
0.0221914759
0.02214547015
0.02218615041
0.02223359641
0.02224793092
0.02226702293
0.02224256228
0.02223266997
0.02217704482
0.02224544561
0.02227328474
0.02230280969
0.02232062999
0.02231894101
0.02228098234
0.02226264702
0.022192125
0.02230384791
0.02237790159
0.02240302855
0.02246412206
0.02250840804
0.02254963927
0.02239668802
0.02230173272
0.02227913308
0.0224396089
0.02287334518
0.02335001433
0.02427656313
0.02520912349
0.02589155589
0.02473863166
0.0223847662
0.02233140118
0.02230056912
0.0227481198
0.02601719611
0.03658630886
0.05073235991
0.07585807089
0.05600716823
0.05491312803
0.02320922783
0.02241556875
0.02235206742
0.02230836039
0.02350218378
0.035221267
0.1020247484
0.2645349095
0.4445691087
0.3061169578
0.2750702878
0.04310250325
0.02263942473
0.02242174818
0.02237339309
0.02230809843
0.02350270006
0.04730421737
0.1903601078
0.5973524631
0.9911622723
1.237981386
1.012471497
0.1827978047
0.02623684599
0.02256333678
0.0224349585
0.02237408425
0.02232312077
0.02303043719
0.05296206996
0.3299574291
0.6734669886
0.9713555509
1.5672755
1.622474239
0.8373745359
0.07277524422
0.0231096592
0.02253551614
0.02243657414
0.02237961295
0.0223416889
0.022649807
0.03329329899
0.3429254962
0.6408297909
0.7075134153
0.8591642436
1.684611657
1.597273049
0.3219831817
0.03196160294
0.02270609395
0.02253660528
0.02242755035
0.02239698225
0.02235982217
0.02261172014
0.02438572666
0.1811901509
0.7435904002
0.4555054354
0.3134158895
0.8814676687
1.474076233
1.020673982
0.1583461765
0.02352370746
0.02265580425
0.02250589805
0.02245118232
0.02222410482
0.02259127687
0.02289052084
0.04638597328
0.6825910597
0.608649467
0.1305136573
0.210309766
0.8403214012
0.7225666564
0.1799395755
0.04100033871
0.02282402636
0.02262876227
0.02253008863
0.02232210336
0.02259368157
0.0227031998
0.0251711448
0.2584966086
1.009754126
0.5401010255
0.1010742644
0.2307447673
0.2312641692
0.1406660673
0.03576541012
0.02320993554
0.02275249486
0.02261902562
0.02245899729
0.123973405
0.04985653866
0.03172349208
0.05429588356
0.7153672294
1.204175507
0.758707875
0.1055374247
0.05413601409
0.04506402474
0.03093074568
0.03353462644
0.03998877369
0.02302201617
0.02263405457
41.38546379
40.18090323
13.34716555
6.185623989
4.298122978
6.27004531
6.053979965
4.252051039
3.8487077
4.034913532
4.709171321
6.159152719
10.95563425
1.773799953
0.04360512379
0.02199042791
0.02199947189
0.02202310323
0.0220473751
0.02205175744
0.02203925609
0.02212499205
0.02209866174
0.02208974537
0.0220577104
0.02211868509
0.02214736057
0.02211599256
0.02212745541
0.02209297009
0.02211406946
0.02216334417
0.02217926608
0.02216599555
0.02216367824
0.02212020371
0.02215709123
0.02218688002
0.02220286565
0.02222011691
0.02219806195
0.02219590074
0.02214057951
0.02220024673
0.02223959852
0.02226848199
0.02229185434
0.02229145851
0.02225594994
0.02223663614
0.02216976414
0.02227476032
0.02233800143
0.02235876254
0.0224087542
0.02240594361
0.02242579967
0.02232786947
0.02226175781
0.02223449698
0.02235099486
0.02263042441
0.02291244775
0.0234325409
0.02434182671
0.02497354351
0.02437487322
0.02235419128
0.02229290099
0.02227256204
0.02262826841
0.02489408229
0.03288068564
0.04369496535
0.06126245203
0.04928157702
0.05357783812
0.02303560585
0.02236565864
0.02232409142
0.02226148387
0.02295542272
0.02999308525
0.0780169735
0.2076531872
0.3849368323
0.2817268831
0.2681151851
0.03922287389
0.0225603556
0.02238966913
0.02232621366
0.02228482854
0.02310589676
0.04149228662
0.1601770984
0.5326806029
0.9778154664
1.226692953
1.021323205
0.1632935756
0.02571721451
0.02250295861
0.02239004521
0.02234814955
0.02228113465
0.02276028138
0.04105823904
0.2625097791
0.6512553668
0.996335116
1.615967373
1.687214904
0.8218350328
0.06230357859
0.02293804754
0.02250725138
0.02239979036
0.02233999298
0.02232076361
0.0226147864
0.03142490833
0.3008022903
0.6410685146
0.7335775314
0.8898188068
1.722920709
1.635886009
0.3087318401
0.03109631749
0.02264850575
0.02248634721
0.02239842361
0.02237034658
0.02232130225
0.02257726902
0.02364950225
0.1449702626
0.7455827024
0.5364753026
0.3681911689
0.8794216424
1.543658789
1.037249137
0.1497766014
0.02335483911
0.02262514651
0.02248231063
0.0224194773
0.02219737534
0.02254749369
0.02282095906
0.04426919648
0.6745195468
0.6486253353
0.1342914329
0.2084874754
0.8643255728
0.730727731
0.178317107
0.04111371294
0.02276294282
0.02257414535
0.02249066097
0.02229137244
0.02256446845
0.02267149808
0.02479594626
0.2169284956
1.028093221
0.5008917634
0.0944010644
0.2100422156
0.2117842127
0.1198656839
0.03480143447
0.0231413533
0.02272239844
0.02259700461
0.02243497534
0.02260755787
0.02267114285
0.02281831253
0.04767826279
0.6789599968
1.059924924
0.6034094986
0.07979512371
0.05811166882
0.04758350308
0.02647803127
0.02332542194
0.0228769901
0.02271892185
0.02259458198
0.1363605164
0.1597469059
0.05133082146
0.03125244268
0.1784636326
0.9149099244
1.10091831
0.5484813887
0.03460604172
0.02863936028
0.02778893839
0.03163600852
0.04715087141
0.0257184847
0.02269445485
34.68850476
40.27571259
37.51049257
10.74267878
4.831031609
4.243203118
5.972294975
4.85578635
3.948129605
3.901222745
4.313082404
5.611854707
11.65904211
4.459643654
0.09048290231
0.02197698069
0.02197159592
0.02200125678
0.02202681265
0.02202107547
0.02200561061
0.02209366729
0.02205608976
0.02206276304
0.0220398288
0.02209008186
0.02212683332
0.02209527397
0.02209774233
0.02205999402
0.02208867821
0.02212528632
0.02213720814
0.02212484578
0.0221302613
0.02208953245
0.02211987267
0.02215949965
0.02218013498
0.02219665559
0.02217578379
0.02216803556
0.02212055243
0.02217735471
0.02220285743
0.02222600379
0.02224198136
0.02224059049
0.02220939699
0.02219708817
0.02213642605
0.02222570567
0.02227900618
0.02229832854
0.02233566911
0.02235531181
0.02236232977
0.02229383439
0.02223224969
0.02220580193
0.02230362682
0.02249858669
0.02267759861
0.02298887974
0.02335576193
0.02420510735
0.02399699522
0.02229942296
0.02226187395
0.02222437487
0.02246274163
0.02380336688
0.0286513681
0.03511558379
0.04921021905
0.04480646324
0.05359990539
0.02280239193
0.0223357193
0.02228000263
0.0222366972
0.02278691835
0.02813257779
0.06560029369
0.1782176115
0.322077085
0.2551514576
0.2701140658
0.03747714301
0.02250467057
0.02234644335
0.02230334295
0.02224135455
0.02277431056
0.03357135066
0.1199406845
0.4612625564
0.9557168075
1.204405684
1.03717847
0.149505847
0.0248104019
0.02247084734
0.02236154643
0.02230648494
0.02225924032
0.02267270472
0.03548151293
0.2115065065
0.614230842
1.01334948
1.65636141
1.74328246
0.8190731324
0.05737438384
0.02285878395
0.02245283774
0.02236838905
0.02231547613
0.02228042258
0.02254245576
0.02760328037
0.2197352382
0.6357798666
0.776062218
0.9383992555
1.803355196
1.718991555
0.2914896133
0.02924433327
0.02260411552
0.02246042091
0.02236251663
0.02233441047
0.02229726259
0.02253289697
0.02345967462
0.1277056158
0.7438362702
0.5756362402
0.439070218
0.8806504574
1.579296296
1.061153862
0.1466948137
0.02327660964
0.02256610881
0.02243694869
0.02238848944
0.02218445476
0.02251842187
0.0227379363
0.03760062519
0.6279548489
0.6954674766
0.1579858785
0.2078078005
0.8752447775
0.7266244975
0.1689308576
0.03925838678
0.02272505307
0.02254775647
0.02246184701
0.0222670958
0.02252658467
0.02262522443
0.02440813114
0.2036755348
1.05796309
0.4865740054
0.08063115784
0.2068451266
0.2181748743
0.1180523519
0.03394721732
0.02306026096
0.02266010097
0.02254451177
0.02240375804
0.0225486353
0.02263197951
0.02276562449
0.04514234335
0.6774839254
1.087928557
0.5716095313
0.07933662267
0.05570481153
0.04290372984
0.02590124481
0.02325875577
0.02283779693
0.0226902649
0.02256082153
0.02258555816
0.02272650516
0.02285642094
0.02455227941
0.17752274
0.8775949698
1.001356309
0.4316213996
0.02904091046
0.02612311977
0.02389966905
0.02329556385
0.02301747319
0.02281951385
0.02264460121
0.09513692441
0.1417781841
0.1457372727
0.04617670728
0.03755017332
0.4198026708
0.8244559273
0.8534126827
0.09899484832
0.02691319058
0.02704057379
0.03003680149
0.04743407609
0.03166703146
0.022730011
19.86214599
30.23045267
35.38608747
30.87676073
8.725839614
4.827056945
4.583870292
5.232075899
4.343854343
3.976564724
4.318612176
5.313207981
11.83318727
8.61209975
0.1689584497
0.02195231312
0.02195610301
0.02197701305
0.02197999142
0.02199431423
0.02198868626
0.02206342056
0.02203137526
0.02203325313
0.02200548644
0.02207308377
0.02208564871
0.02205475268
0.02206903871
0.02203899287
0.02205398956
0.02210626586
0.02211647298
0.02210430562
0.02210313368
0.02206476853
0.02209405415
0.02211726619
0.02213891063
0.02215231826
0.02213357688
0.02213425094
0.02208527206
0.02213432216
0.02216848692
0.0221925499
0.02221441019
0.02221536833
0.02218628523
0.02217040177
0.02211487203
0.02220056205
0.02224732969
0.02226526053
0.02229825312
0.0222877013
0.02228196398
0.02223476222
0.02219682925
0.02216300557
0.02224263117
0.0223797304
0.0224805666
0.0226430225
0.02293658082
0.02357462145
0.0237086908
0.02227228339
0.02222403536
0.02219673011
0.02239760301
0.02323567149
0.02649125713
0.03087025189
0.03833118079
0.04040113757
0.05499287697
0.02267536342
0.02228929157
0.02225465772
0.02219145003
0.02255972072
0.02558940996
0.05026629554
0.1277262213
0.249753366
0.2288312723
0.2866795454
0.03463099196
0.02243413329
0.02231446977
0.02225852783
0.02221815584
0.02260676206
0.03075102234
0.1014719838
0.3896392728
0.9135491688
1.168445631
1.073084607
0.1458968573
0.02441659671
0.02241382659
0.02232018536
0.02228221927
0.02221836618
0.02252751814
0.02972151009
0.1547461753
0.5680032411
1.041328434
1.717310205
1.826050798
0.8240823345
0.05227157894
0.02271288413
0.02242545278
0.02233164388
0.02227684341
0.02225940945
0.02251117929
0.02631274521
0.1724168408
0.6192082685
0.8011755075
1.000270262
1.866810802
1.778315281
0.2893606891
0.02850168194
0.02254818614
0.02241204962
0.02233519606
0.02230924562
0.02226005872
0.0224982817
0.02302198743
0.09243735533
0.7288702426
0.6402654123
0.5155989072
0.8882889321
1.659869766
1.091889748
0.1440418946
0.02309068025
0.02253648755
0.02241319211
0.02235707961
0.02216077959
0.02247668395
0.02268672233
0.0351112407
0.5871611594
0.745109671
0.1848977285
0.2136106404
0.8914054244
0.7334833588
0.1657437089
0.0385673253
0.0226634151
0.0224961215
0.02242395085
0.0222380003
0.02249035828
0.02259279931
0.0238517283
0.167380006
1.075288335
0.4791025381
0.07616094859
0.1916661239
0.2205553452
0.1099013308
0.03193340403
0.02297958926
0.02262998337
0.0225191413
0.02238111002
0.02252826459
0.02259839695
0.02270033376
0.04154964295
0.6796580516
1.126806952
0.5302783736
0.0679520349
0.05786184205
0.04246983089
0.02567115968
0.02316470089
0.0227659791
0.02262796018
0.02252418541
0.02252802132
0.02264812091
0.02277172845
0.02431693563
0.1596223842
0.9341389449
1.04231537
0.44150769
0.02944819224
0.02571496902
0.02375560833
0.02323292206
0.02296674189
0.02278747128
0.02261000455
0.02253229902
0.02276702503
0.02327091256
0.02568673389
0.03352695289
0.4089346484
0.7872687044
0.7642491022
0.07729494208
0.02389478147
0.02343239202
0.02322410631
0.02311495385
0.02293754259
0.0226635063
0.04759492568
0.08671795306
0.1249109603
0.1183796871
0.06552245497
0.07997926829
0.2997408858
0.8168129992
0.35355656
0.02882694408
0.02727803596
0.02964659483
0.04842186452
0.04494591661
0.02277366343
11.17814998
15.06264519
27.79780184
33.21583649
29.20577156
9.767547373
6.014434711
5.431939847
4.970275278
4.222557036