/*--------------------------------*- C++ -*----------------------------------*\
  =========                 |
  \\      /  F ield         | OpenFOAM: The Open Source CFD Toolbox
   \\    /   O peration     | Website:  https://openfoam.org
    \\  /    A nd           | Version:  12
     \\/     M anipulation  |
\*---------------------------------------------------------------------------*/
FoamFile
{
    format      ascii;
    class       volScalarField;
    location    "0.4";
    object      nut;
}
// * * * * * * * * * * * * * * * * * * * * * * * * * * * * * * * * * * * * * //

dimensions      [0 2 -1 0 0 0 0];

internalField   nonuniform List<scalar> 
136973
(
0.0004184482121
0.0003486063371
0.0003617026747
0.0009030592571
0.0004045673769
0.0003052503271
0.000220871854
0.0002237644277
0.001540744652
0.001549540626
0.0006600328279
0.0003362219345
0.0009336622496
0.0002623520672
0.0001660367581
0.0002201343863
0.0001626173313
0.001757450668
0.002963744609
0.002137206735
0.000642787445
0.0005741805698
0.002265440272
0.0002823682987
0.0006671446952
0.000746817283
0.0002184685647
0.0001463951509
0.000154208807
0.0002084089344
0.002534501837
0.0161105563
0.007288883431
0.004458635962
0.001904633785
0.0007336585497
0.0005576523823
0.003190722731
0.0004866817506
0.001420826445
0.002481815915
0.0002433880668
0.0006608417729
0.0005023839953
0.0006500587179
0.0002225735015
0.0001407926811
0.0001375789771
0.0001354770144
0.0002046483906
0.03504332964
0.02860240732
0.02143383003
0.01286186541
0.00435924848
0.0008616955138
0.0007795042682
0.0006232472738
0.002461335233
0.0004870959627
0.0018957719
0.003330829296
0.0004045040004
0.00116548778
0.001353207141
0.002424041547
0.0002093353186
0.0006548542708
0.0004623862775
0.000416441246
0.000355671215
0.0009114323309
0.0008728367569
0.0003313362539
0.0001491863099
0.0001197257753
0.000225982634
0.01593327627
0.01684601268
0.02127363037
0.02437883622
0.01399485054
0.003829824835
0.0002630615733
0.0008402821826
0.0006501269895
0.002366543695
0.0005633062413
0.001730619687
0.003133225801
0.0004129143865
0.001729865525
0.001845545141
0.002742539465
0.0003365107918
0.001005594942
0.001088962822
0.001286433148
0.001774322341
0.0001911115915
0.000714050057
0.0004267854302
0.0003779014279
0.0003721688888
0.0003348612363
0.002437925317
0.002999483729
0.002415385451
0.001265356437
0.0001861150111
0.0001101217111
0.0003059191402
0.01135475104
0.01152663885
0.01263449741
0.01693216129
0.02271833557
0.01315203695
0.00377607786
0.0001691232278
0.0008898881491
0.000676828445
0.00219120247
0.0005982590848
0.001725842854
0.002958676197
0.0004747841462
0.001650449728
0.001879132312
0.003056214442
0.0003551117679
0.001558427971
0.001594967549
0.001510618261
0.001933809742
0.000295342633
0.0009340021434
0.0009027244457
0.001050947671
0.001049215969
0.001209318918
0.0001884270094
0.000601610012
0.0004164568858
0.0003377611221
0.0003321506124
0.0003452729455
0.000294577565
0.001795236126
0.002074733567
0.002514957183
0.002962710514
0.002196876156
0.0003671797278
0.0001076044009
0.0003976039261
0.008774741271
0.009050394999
0.009533377913
0.01064762424
0.01436030944
0.02026801759
0.01265249439
0.003841757658
0.00031002764
0.0009372220544
0.0006925811979
0.002082098956
0.0006292715551
0.001647006753
0.002722463118
0.0005029567969
0.001698526543
0.001915770308
0.002896092497
0.0004151382959
0.001522956608
0.001600069445
0.001690181373
0.002345122485
0.0003196150082
0.001643174106
0.001328977739
0.001280359877
0.001142672679
0.001244504593
0.0002928326678
0.0008051730321
0.0008195115451
0.0008104980075
0.0008902494171
0.0008972345176
0.0004824065952
0.000178927711
0.0003173959624
0.0003857399332
0.0003165424073
0.0002963510981
0.000303542371
0.0003417426499
0.0002605224386
0.002190398113
0.002009777386
0.002194891806
0.002486596717
0.002689260056
0.002885422517
0.000374982833
0.0001132705897
0.0003809053039
0.008348942571
0.008504290114
0.008705167365
0.008839423939
0.01016034692
0.01419833216
0.01944322991
0.01208810182
0.002281928113
0.0007060749717
0.0009786307371
0.0007037222234
0.001987566865
0.0006470933533
0.001588722289
0.002542263501
0.0005234730181
0.00164433231
0.001855788634
0.002680498735
0.0004483972179
0.001587028012
0.001682581443
0.001692477872
0.002486413042
0.0003646290926
0.001629900198
0.001313042896
0.001369240787
0.001327215853
0.001637695237
0.0002988745415
0.001043786309
0.001202963378
0.0009799141202
0.0009976978965
0.0009299806628
0.0004646803886
0.0003477359872
0.0006099220212
0.000724768799
0.0006737219517
0.0006872897709
0.0008039666544
0.0008543407126
0.0003920020256
0.000202137381
0.0002469644947
0.0003778473267
0.0004455043335
0.0003793919366
0.0003434132937
0.0002968069452
0.0003955082635
0.0002964487713
0.002280526641
0.002217468022
0.002532318186
0.003046972421
0.003152704932
0.002762489469
0.002947100639
0.0002816946197
0.0001394207484
0.0003834489211
0.008452700525
0.008384278646
0.008238219744
0.008827519873
0.008745816658
0.01005013708
0.01398653336
0.01943007324
0.01022730933
0.002108436671
0.0008302717372
0.001016721036
0.0007102542852
0.001912306279
0.00065756522
0.001535261597
0.002388826968
0.0005319524425
0.001594346385
0.001790628862
0.00248273294
0.0004718608535
0.001534855492
0.001669465243
0.001657991006
0.002524953277
0.0003808674991
0.001686892734
0.001370898485
0.001382103124
0.001387702803
0.002060129927
0.0003421592032
0.001065697592
0.00119385816
0.001010839511
0.001106816456
0.001102297185
0.0005044108218
0.0004654235845
0.0005458624956
0.0008295639485
0.0007846146264
0.000767542684
0.0008658966025
0.0007868348143
0.0003858575765
0.0006236431716
0.0004982116698
0.0006445425658
0.0007581199543
0.0007374767766
0.0007671509112
0.0007246658258
0.001066490658
0.0004366162342
0.0002727363484
0.0007290433932
0.001878008716
0.003949957036
0.0034212393
0.002479188717
0.001507239369
0.0002924337522
0.0004952619844
0.0003290184398
0.002432203154
0.003339763614
0.004104773437
0.004923066402
0.005164652468
0.003464261132
0.002986010439
0.002954954831
0.0001484984812
0.0001899195491
0.0003874998094
0.008623077792
0.008274408498
0.008041144842
0.008369044459
0.00854821084
0.008285428371
0.009337156673
0.01508914537
0.01887280151
0.007468775295
0.002749733973
0.0007547268539
0.001050694084
0.0007150801801
0.001850656491
0.000662252061
0.001493932257
0.00226749173
0.0005346083234
0.001545360486
0.001721661759
0.002316562935
0.0004789283286
0.001469195982
0.00164175433
0.001600814024
0.002474808276
0.000383914612
0.001570341587
0.001357062568
0.001367171924
0.001420762468
0.002168037308
0.0003534600535
0.001046887024
0.001210999086
0.001013411505
0.001137408692
0.001195017519
0.001073108745
0.0006107421697
0.0006162500596
0.0008421611035
0.0008011783954
0.0008180859801
0.0009763279159
0.0008683159629
0.0004269634567
0.0006397082862
0.0004224871537
0.0005627796626
0.0007125688641
0.0007686520495
0.0008155766532
0.0007126458587
0.0009595830664
0.0004227021832
0.0009669735226
0.00126753953
0.002574263144
0.005201779511
0.005256208521
0.004111209191
0.003976317695
0.0007867924745
0.001483143963
0.0004816083285
0.0005117810719
0.004850393853
0.005585495808
0.005525603325
0.005473273711
0.003507674364
0.002983013904
0.0007538267235
0.0003048873622
0.0005973926524
0.0003439943517
0.002478239038
0.004316729563
0.005279646263
0.005753382469
0.005806272722
0.004627577994
0.003704189145
0.002902889073
0.001984420218
0.0001159612757
0.000209453699
0.0003947928281
0.007714475364
0.008378967286
0.008193384799
0.0079496821
0.008606102663
0.008819916613
0.008270699027
0.01044304706
0.01620591527
0.02281832488
0.005520796435
0.003346738865
0.0007200397542
0.001083658516
0.0007183121508
0.001802620086
0.0006642487665
0.001462082629
0.002170549962
0.0005339011511
0.001504807057
0.001661598744
0.002186336957
0.0004768218982
0.001406822091
0.001605420675
0.001543929345
0.002393333177
0.0003965400686
0.001457483981
0.001329369662
0.001339301939
0.001418873177
0.002289722058
0.0008882205151
0.001038898717
0.001181008234
0.001000946883
0.001154310883
0.001254543208
0.001213578478
0.0007414240264
0.0006419973245
0.000830710557
0.0007962284599
0.0008278676545
0.001008231175
0.0009047085775
0.0004470984093
0.0007390949152
0.0004628147986
0.0005565846861
0.0006679259274
0.0007586388667
0.0008649403326
0.0007671144171
0.000987673361
0.0004745245277
0.0007887769926
0.001000402678
0.001772607517
0.003609944565
0.004434494782
0.003791543428
0.003984243327
0.0007678524892
0.00148329079
0.0004533797783
0.001568438247
0.005829146171
0.00478002796
0.004794793917
0.005007924937
0.002845623596
0.002368513611
0.001659904064
0.0008526520018
0.001461252209
0.0005123842966
0.0007133688545
0.006026749009
0.005528079045
0.005472944506
0.005546406258
0.004284621072
0.003339412757
0.003085853685
0.0002810256151
0.000342594366
0.0006833916475
0.0003697149793
0.00218424071
0.004468860807
0.005602510759
0.005943922594
0.006399621061
0.007192276493
0.006560003582
0.003319482816
0.002553297366
0.001199077238
0.0001457371855
0.0002078571094
0.0004019843688
0.007616191481
0.007662327043
0.008288473982
0.008103934921
0.00798030888
0.009117384869
0.008788852723
0.008080425311
0.01209905883
0.01776417295
0.02188848266
0.004244781912
0.003398010215
0.0007406882155
0.001099877674
0.0007223448705
0.001769620593
0.0006642649408
0.001440975135
0.002097371029
0.0005321019878
0.001472628001
0.001610718773
0.002084560037
0.000470319283
0.001352791162
0.001569603543
0.001493815684
0.002306942026
0.0003994123386
0.00137319567
0.00129784008
0.001312177589
0.001403631703
0.002323401159
0.001066130574
0.001060964659
0.001148163326
0.000983751081
0.001152622003
0.001286483208
0.001347028362
0.0009398043599
0.0006822535021
0.0008301466084
0.0007857484828
0.0008302998875
0.001034091932
0.0009633688148
0.0004771889501
0.0007890823712
0.0004950618328
0.0005481119663
0.0006162201244
0.0007235542391
0.000854962705
0.0007769222468
0.0009660023636
0.0005080429057
0.0008141373041
0.0007603445222
0.00124817817
0.002656585652
0.003836700413
0.003216498517
0.004562471737
0.0008083786093
0.001489034963
0.0004977916098
0.001278431958
0.005847156014
0.00486789684
0.004794153198
0.005026498889
0.002418672114
0.002069996452
0.001577687584
0.0009925773601
0.001513572362
0.0004763540508
0.001969080335
0.005369148773
0.005165025668
0.005305985761
0.005444795514
0.00386001437
0.002791400352
0.002583410206
0.0006585159229
0.001012122775
0.001588196989
0.0005756537252
0.0004675562327
0.00624484324
0.005358771991
0.005482201148
0.006142357578
0.006933341842
0.006189963723
0.002729973188
0.002281397232
0.000244264111
0.0004375544362
0.0006893844723
0.0004072833268
0.001642998277
0.00406846431
0.005612725944
0.00562872388
0.005887859653
0.008032198373
0.008030589758
0.004923421238
0.002543595918
0.002633756312
0.0003235868121
0.0001833243007
0.0002254959616
0.0004131089319
0.01024269457
0.007715206012
0.007687310549
0.008183084697
0.008254603766
0.008245332123
0.009168773192
0.008592041772
0.008490637352
0.01510828275
0.0212627269
0.01284170324
0.004215600579
0.003709588716
0.001094890729
0.00213263933
0.001730249042
0.001761064476
0.001930477565
0.001432518249
0.002044004271
0.0005289125026
0.001448781184
0.001571055428
0.002010228687
0.0004639382064
0.001312009695
0.001540313926
0.001452375725
0.002228280342
0.0004001987438
0.001313215564
0.001267660895
0.001287298845
0.001382625208
0.002323840842
0.001258694294
0.001069889687
0.001121224786
0.0009690871014
0.001145811383
0.001302301096
0.001497607665
0.0009896323112
0.0007483613497
0.0008337593106
0.0007741386467
0.0008250773223
0.001042786601
0.001009152674
0.0004955603145
0.0008367107471
0.0005348024903
0.0005534196451
0.0005933994994
0.000700484541
0.0008321138783
0.0007948320778
0.001000614684
0.0005403760676
0.0007994276547
0.0006382584334
0.0009499596185
0.001769340805
0.002919792367
0.002891588504
0.004374658481
0.0007986495126
0.001428730973
0.0005228814213
0.0009627028276
0.003563181992
0.004837917694
0.00452954322
0.00462194971
0.001946976499
0.001642930087
0.001520097511
0.001058772764
0.001445293951
0.0005154031749
0.001754041783
0.005429181962
0.005059184372
0.005194431178
0.005331262139
0.003548904854
0.002561936746
0.002277084394
0.000702365651
0.001165051981
0.001752537781
0.0005253559721
0.001306477791
0.005578154308
0.005218516783
0.005357670053
0.005891452842
0.00670942471
0.005738753074
0.002350879623
0.004574802221
0.0006410233228
0.001198799756
0.001808563444
0.0006557447512
0.0002259538164
0.006177209345
0.0053190328
0.005203655021
0.005533272452
0.00775681977
0.00765269246
0.0046476388
0.002395356596
0.0003201868902
0.0002699004523
0.0005137529055
0.0007509204478
0.0004520980257
0.001784697473
0.002459260745
0.005621390339
0.005460830485
0.005088486455
0.005824689289
0.008423321167
0.007894574149
0.002584116992
0.002405279167
0.002138697618
0.0001407176484
0.0002000258933
0.0002323342985
0.0004826330672
0.01356435333
0.009544021411
0.007766275311
0.00769445756
0.008310752976
0.008345396976
0.008558570333
0.008811372425
0.007938228684
0.0109300856
0.01739487173
0.02387706441
0.005723091763
0.004751585752
0.001638203239
0.002134658315
0.0007328792249
0.001748670018
0.001932321973
0.001416506857
0.002012036714
0.001838991162
0.001439477955
0.001542012107
0.001957187601
0.0004663737365
0.001286268588
0.001516729714
0.001420151302
0.002164693959
0.00201043661
0.001281214504
0.001244447618
0.001269016013
0.001362670069
0.002304094738
0.001493427689
0.001073600306
0.001100148857
0.0009565396473
0.001135392694
0.001308487068
0.001650727475
0.001060626351
0.0008047552733
0.0008401814754
0.0007666404644
0.0008187354016
0.001047515197
0.00105066559
0.0005087271425
0.0008753390878
0.0005649627618
0.0005715562986
0.0005820351285
0.0006782443971
0.000796729045
0.0008055781758
0.001027789209
0.0005622162879
0.0008017720744
0.000533366122
0.0006535607603
0.001245467137
0.002399700875
0.002533658215
0.004154665513
0.0008080461431
0.001381701294
0.0005515335711
0.0008367722351
0.002389527958
0.00484705621
0.004489823209
0.00456696221
0.00155276054
0.001368348112
0.001372206272
0.001048767359
0.001446004182
0.0005393876616
0.00113254676
0.005492151067
0.004906001369
0.004992537007
0.00526582344
0.003096422287
0.002100379565
0.001889607924
0.000715454261
0.00124643005
0.001664953264
0.000565194126
0.001345377492
0.005486548605
0.005162780947
0.005248239733
0.005748287341
0.006623353838
0.005553643723
0.002017599162
0.004298173774
0.0007740667957
0.00134059003
0.001951213583
0.0005899507796
0.0008271410133
0.005691082188
0.005308019134
0.005023225481
0.005330432666
0.007536873367
0.007479639122
0.004194501209
0.001978573267
0.0007421204771
0.0007557344019
0.001328628866
0.002272287277
0.0007738435425
0.0002339018601
0.00261115956
0.005595095735
0.005069181118
0.004760828237
0.005474635669
0.008085653658
0.007449173301
0.002316386522
0.003496831166
0.0002168115045
0.0003564667442
0.0005661608482
0.0007836922147
0.0005538856953
0.002285387956
0.001843731768
0.00441342207
0.005807679844
0.004422001656
0.004558513444
0.006441329914
0.007683534529
0.005176937781
0.002327771575
0.00253039518
0.0005749282849
0.0001578893495
0.0002145346499
0.0003163835637
0.01505405039
0.01220594156
0.008511388044
0.007832597385
0.007678871013
0.008332859866
0.008167655514
0.008512162962
0.007770056347
0.007675680308
0.01475472583
0.02255143644
0.01435775684
0.004440751682
0.001832158768
0.002188386363
0.00173242838
0.001759426321
0.001919539133
0.001448686042
0.001995150506
0.001852943464
0.00144195271
0.001521954368
0.001923946891
0.0004666942797
0.001281276477
0.00150394521
0.001396751395
0.002117053586
0.00226280241
0.001271335557
0.001227898043
0.001255126625
0.00134571392
0.002278635022
0.001737627708
0.001085337942
0.001089457266
0.0009490542573
0.001126590614
0.001311388486
0.00180392412
0.001122545233
0.0008594498609
0.0008486526619
0.0007616864889
0.0008108331013
0.001047907955
0.001085296172
0.0005156218373
0.0009062460686
0.0005947504713
0.0005906366778
0.0005813386314
0.0006692950533
0.0007579825745
0.0008163249909
0.00105843346
0.0005750595783
0.0008120941928
0.0005094606423
0.0005498047162
0.0008706477254
0.001749415523
0.002357112743
0.00405629453
0.000812468562
0.001334897095
0.0005730393994
0.0007634398725
0.001393572148
0.005093339149
0.004464460001
0.004239370737
0.001232507513
0.001111840649
0.001186325224
0.001044627503
0.001410396403
0.0005686312579
0.0009104246367
0.005655567364
0.004819603099
0.004925045678
0.005213925923
0.002715653288
0.001803010433
0.001662211191
0.0006917286863
0.001252191882
0.001681438638
0.0005885390952
0.001006955868
0.005581941852
0.005042491695
0.005106462488
0.005565572278
0.00638474392
0.005085163953
0.001595053325
0.004043099652
0.0008470900274
0.001432612597
0.001962801907
0.0006288500952
0.00096836049
0.005509425288
0.005293180612
0.005010615787
0.005282963203
0.007447849825
0.007413737339
0.004017357198
0.001652973577
0.0008197146252
0.0008719242535
0.001481967131
0.002369079811
0.000679927027
0.001031205549
0.005747178873
0.005518449266
0.004888482924
0.004774750335
0.005192463899
0.007956155433
0.00729880404
0.0019804228
0.003185253353
0.0005788217722
0.0009218108366
0.001599969516
0.002589495484
0.0009172468278
0.0003502240435
0.0004035228871
0.005711361548
0.005378616427
0.004107996969
0.004559353814
0.006088176259
0.007312798376
0.005003243026
0.002009133098
0.0003429890965
0.0002492386018
0.0004444794331
0.000629453181
0.0005570600876
0.002213936603
0.002371383268
0.002783265522
0.005656447184
0.005065050371
0.003718841847
0.004673924694
0.005900372716
0.004543697183
0.002406310697
0.002436846415
0.002519204323
0.0001428527788
0.0001834462332
0.0003272163861
0.01827264019
0.01474029815
0.01017605522
0.0071238112
0.007881800037
0.007689619417
0.008017001956
0.008069471739
0.007477435043
0.007377727261
0.01096385135
0.02041929304
0.02450510384
0.005197490139
0.001921035387
0.002202101695
0.0007503091073
0.001772427889
0.001930219105
0.001420531713
0.00199336645
0.001819083068
0.00144578107
0.001517237674
0.00190621074
0.002234992056
0.001294741345
0.001499231559
0.001381613123
0.002088018193
0.002427074448
0.001275602653
0.001221524264
0.001248061196
0.001334612869
0.002257521164
0.001807924623
0.001134523847
0.00108636615
0.0009447635841
0.00111872923
0.001312732958
0.00194828815
0.001183208597
0.0009071897379
0.0008616176994
0.0007614590735
0.0008047668227
0.001048631145
0.001115612264
0.0005188548937
0.0009358532544
0.0006247763081
0.0006121470011
0.0005864448068
0.0006631578735
0.0007219516087
0.0008240186189
0.001083559353
0.0005795178075
0.0008244539467
0.0005026007826
0.000463284837
0.0006334966591
0.001398975866
0.002261491381
0.003617063917
0.0008173672821
0.001293287805
0.0005891347374
0.0007517622264
0.0009658685068
0.00404008355
0.004439768906
0.004133097855
0.0009831558088
0.0009793534728
0.001008714034
0.001030963963
0.001379872794
0.0005932841891
0.0007618385768
0.003273149044
0.004719388264
0.004798735762
0.005189143799
0.002311343698
0.001498795866
0.001441083569
0.0006709698919
0.001252869539
0.001654868433
0.0006192240077
0.000867660318
0.005663315716
0.004875392646
0.005002677697
0.005457679339
0.006278533334
0.004802037044
0.001305578646
0.003961363993
0.0008537517469
0.00146237469
0.001997956174
0.0006496970499
0.0009808894173
0.005857479383
0.005290920749
0.0049518306
0.005214321458
0.007286845151
0.007249036849
0.003616391644
0.001356289458
0.0008222574041
0.0009668766305
0.001579466829
0.002481644641
0.0007206753815
0.001213348572
0.004422721151
0.005520331496
0.004918069416
0.004802961269
0.005093530719
0.007898626222
0.007225357194
0.001878673159
0.002952938275
0.0007094927987
0.001046138886
0.001710369938
0.002563930372
0.0008061752203
0.001562178569
0.00120250762
0.00515855931
0.005311683411
0.004105692604
0.004222354997
0.005916108037
0.00721399874
0.004743251972
0.001831967598
0.0008046112334
0.0006425627532
0.001139383352
0.001819864869
0.004525577051
0.0004847329751
0.0003933901329
0.005738243333
0.005369290485
0.00458892725
0.003690051843
0.00487580496
0.005730466481
0.004222615011
0.00225390612
0.003211127133
0.0002103299446
0.0003355682917
0.0005102286395
0.0005297283409
0.002337960319
0.00207829807
0.002297560549
0.004795797209
0.006371857033
0.004817298813
0.003757414854
0.00452635875
0.002625074579
0.00242896116
0.002179972767
0.002542612899
0.0005504417031
0.0001489677976
0.0003132297239
0.04261292398
0.0222990777
0.01271589821
0.008086771628
0.006872461892
0.007865176258
0.007727279392
0.007760743668
0.00712774055
0.007102500734
0.01006229614
0.01591325629
0.02770404911
0.01076974066
0.002458525665
0.002255803366
0.001783218576
0.001797630249
0.001921494768
0.001465821209
0.002004519177
0.001839762181
0.001454170156
0.001510457912
0.001903263304
0.002241804883
0.001292761616
0.001501573203
0.001374027068
0.002075862036
0.002520982056
0.001295378018
0.001222402411
0.001245012349
0.001329480831
0.002244591397
0.001885736064
0.001170060888
0.001090375614
0.0009452413414
0.001115019478
0.001315640512
0.002081293407
0.001238212028
0.00093881757
0.0008801476234
0.0007638101145
0.000799344079
0.001048521669
0.001140381624
0.0005193022556
0.0009629171966
0.000652980196
0.0006325225237
0.0005935385084
0.0006614736411
0.0007039209322
0.0008313197713
0.001105154582
0.0005790334443
0.0008401837942
0.0005160271213
0.0004540096879
0.000515547414
0.0009490943708
0.002307201175
0.002807006464
0.0008194191028
0.001256495636
0.0005988072976
0.0007463028636
0.0006408882824
0.002108042436
0.004619028608
0.003862251611
0.0008198883789
0.0009061094567
0.0008147370157
0.001017236588
0.001346960211
0.000614398561
0.0007326055681
0.002104484423
0.004647238799
0.004766822605
0.005155016189
0.002001509117
0.001313064941
0.001349612941
0.0006541207176
0.001236976544
0.00163281639
0.0006457016635
0.0007912469991
0.00489467518
0.004742786908
0.004890093994
0.005379668724
0.00603868932
0.004397723114
0.001042309944
0.003827473712
0.0008583265136
0.001475189501
0.002000724829
0.0006797538975
0.0009412380457
0.005812317049
0.005257722892
0.004860781877
0.005185140512
0.007227570791
0.007142309807
0.003364422066
0.001159530607
0.000782920169
0.0009776104858
0.001648930655
0.002548601853
0.0007367709019
0.001388777689
0.00261673122
0.005589060005
0.004819116693
0.004826011875
0.004908457065
0.007795936281
0.007052748699
0.001609669878
0.002727146573
0.0007884579465
0.001146438802
0.001855839454
0.00280480439
0.0008402414221
0.001666580475
0.0009168868548
0.005150511539
0.005294926478
0.004134039368
0.004302595516
0.00581253515
0.007154978638
0.004738124944
0.001653788096
0.0008799449175
0.0007782166252
0.001246256521
0.001796945505
0.005275535239
0.001985486071
0.001314703096
0.005567944992
0.005425371032
0.004554315741
0.003415610913
0.004701339503
0.005677271252
0.004038684213
0.002021813326
0.003145270471
0.0005443848311
0.0008186564042
0.001310899395
0.002602607974
0.0006994573833
0.0004489158728
0.0007165571042
0.005214427544
0.005794983168
0.004288217151
0.003912336719
0.005090415502
0.002648337235
0.002562933196
0.003209286413
0.0002551535167
0.000255572541
0.0004178929651
0.0004517975315
0.00316215312
0.002265469363
0.00190160859
0.002852662134
0.005490130996
0.00627401381
0.005130928172
0.003735633429
0.002434725974
0.002220023285
0.002046346451
0.002264109172
0.002481037525
0.0001389068902
0.0002814985817
0.04196989633
0.04472278335
0.02007568341
0.01001597413
0.006881859302
0.006849227225
0.007817662794
0.007700800036
0.007333385976
0.007477315637
0.009565765107
0.01356329234
0.02815666166
0.02518915429
0.003631712705
0.002286529963
0.001798749469
0.001817208585
0.002057484817
0.00145810567
0.002026482915
0.001845770091
0.001465472978
0.001522604969
0.00191413033
0.002274200636
0.00131005095
0.001507780872
0.001372550488
0.002078404568
0.002634084515
0.001312460593
0.001226053028
0.001247117887
0.001331091301
0.002243774251
0.001937432601
0.001202952892
0.001098832499
0.0009477851916
0.001113742397
0.001319019927
0.002185862516
0.001289614799
0.0009657740956
0.0008996672084
0.000769556983
0.0007968456683
0.001050459613
0.001162000381
0.0005188760541
0.0009915336393
0.0006791200222
0.0006545168795
0.000602759089
0.0006594548091
0.0006991137324
0.0008359709741
0.001121720998
0.0005750844598
0.000856251882
0.0005307181289
0.0004562873064
0.0004624575939
0.000716601003
0.002565543157
0.001948685003
0.0008211772382
0.001224480687
0.0006044376837
0.00075233038
0.0005488175289
0.001404428983
0.003271529312
0.003711590006
0.000718506575
0.0009292977507
0.0006661427812
0.001001722758
0.001317655455
0.0006300768041
0.0007175465327
0.001096801842
0.004741825311
0.004689445291
0.005095595561
0.001745520146
0.001196308385
0.001297636212
0.0006407190014
0.00121640732
0.001604277894
0.0006696350222
0.0007777399803
0.003056111422
0.004647347603
0.004832664879
0.005350271711
0.005862068783
0.004137955965
0.0008775347891
0.003180108649
0.0008519089084
0.001465640446
0.001994796381
0.0007056299336
0.0009204972152
0.003485170914
0.005262600907
0.004758551357
0.005105143301
0.00713139422
0.006976244712
0.003026474287
0.000968077426
0.0007278433838
0.0009884528787
0.001691356964
0.002596631732
0.0007647089134
0.00133182681
0.00184080549
0.00549197962
0.004767703966
0.00481146144
0.004862790453
0.007729528947
0.006947283213
0.001449578909
0.002627097371
0.0007986645966
0.001184692276
0.001960059101
0.002889440031
0.0008464658924
0.001920541972
0.0009052655414
0.005102045791
0.005269462611
0.004240729484
0.004229380068
0.005694728526
0.007071688134
0.004479908505
0.001507478037
0.0008796952288
0.0008605881661
0.00135820679
0.001978986656
0.005961281421
0.001976863995
0.001364807071
0.005716208441
0.005424405508
0.004669664661
0.003294753106
0.00456194355
0.005744171991
0.003838555656
0.001858570046
0.002961748925
0.0006707915367
0.0009407875244
0.001298173641
0.002666361726
0.001121099538
0.001948815658
0.001300262316
0.004871137525
0.005711737301
0.00406148082
0.003799723148
0.004973592277
0.002496934367
0.002329954335
0.003208973646
0.0005823166879
0.0006304290221
0.0009807490277
0.0007568719164
0.0003695747368
0.0004863253558
0.0004231996446
0.005277342557
0.005335041242
0.005810263913
0.00449973841
0.004111349237
0.00328321869
0.003320113965
0.001349334169
0.0002789780641
0.0002208203808
0.0003356137622
0.0003857811968
0.002896420222
0.00336219722
0.002122887154
0.001846463793
0.004385750851
0.005645910626
0.006005756665
0.004430813247
0.002403240634
0.002178958308
0.002142195193
0.002232798169
0.00280183082
0.000333680118
0.0003035410944
0.03610156672
0.0388202999
0.03927230681
0.01488070617
0.007711362201
0.00634621362
0.007678300609
0.007759742528
0.008714547169
0.008270938033
0.009387336049
0.01251187843
0.02629457651
0.02814387592
0.003309400387
0.001237044927
0.001824843716
0.001836266953
0.002090526985
0.001472782904
0.002051548918
0.001884609586
0.001549117955
0.001533783326
0.001936753219
0.002305224148
0.001333668563
0.001521347883
0.001380502973
0.002093347048
0.002721718859
0.00133942024
0.001235694095
0.001253123012
0.001338900864
0.002249076299
0.001982905815
0.001239052574
0.001109539683
0.0009533478233
0.00111747227
0.001323047829
0.002215184146
0.001343642016
0.0009880948191
0.0009195390314
0.0007762922687
0.0007956120856
0.001051783313
0.001177747893
0.002546654818
0.00102076796
0.0007033733887
0.0006770169936
0.0006113320857
0.0006588862539
0.0007014312019
0.0008403706268
0.001135252628
0.000570235925
0.0008748979895
0.0005481333531
0.000469025079
0.0004590700255
0.0005313092912
0.003200149754
0.001206247042
0.0008207703115
0.00119759535
0.000606279621
0.0007583655309
0.0005079227046
0.0007292567365
0.001610069752
0.003538722917
0.0006904579721
0.001056415268
0.0005541932469
0.0009871080496
0.001290486561
0.0006419055681
0.0007206611064
0.0007570236366
0.004809559994
0.004646472607
0.004923175094
0.001556646377
0.001188350456
0.001407376581
0.0006313613771
0.001192166901
0.001578408403
0.0006884570015
0.0007776329992
0.001492206804
0.004607106399
0.004713776221
0.005351922947
0.005578161099
0.003881034353
0.0007847943851
0.002419966733
0.0008435175926
0.001446165948
0.001976064134
0.0007300501334
0.0009173412263
0.002087188188
0.004997022264
0.004692119265
0.005083556889
0.007121250341
0.006860444293
0.002848059883
0.0008865196451
0.0006902544681
0.0009842184374
0.001712038351
0.002623277335
0.000787483874
0.001315144529
0.001068844608
0.005318827925
0.004692142023
0.004740470758
0.004798678045
0.007664979158
0.006821587359
0.001264716326
0.002491099148
0.0008042747011
0.001213036662
0.002047843364
0.002986739339
0.0008674991772
0.001867351
0.0008564743004
0.005040721014
0.005247786461
0.004283221698
0.004438381585
0.005578891771
0.006983181953
0.004411691256
0.001428524397
0.0008119454102
0.0008815438744
0.001427837273
0.002108537831
0.006161482447
0.002201441295
0.001541072139
0.004289923425
0.00540609871
0.00476034357
0.003247677807
0.004496023573
0.00578300931
0.003701993303
0.001731963283
0.002813634333
0.0007359432261
0.0010276726
0.00141797066
0.003005360561
0.001921811487
0.001999079095
0.001298202718
0.004851328666
0.005758006447
0.003968623502
0.003518307321
0.004951896526
0.002427525483
0.00221727247
0.003101286971
0.0006088292966
0.0007825426215
0.0009992757568
0.0006714192119
0.0006524547022
0.001308323646
0.002141790795
0.005387914738
0.005326036505
0.005669531803
0.004319697447
0.003992299479
0.003174155808
0.003128727003
0.001900577823
0.0005680085178
0.000542688626
0.0007814811
0.000611620562
0.0001766017273
0.0002676458263
0.0003700930988
0.00046881174
0.004922234802
0.005496099417
0.005636857198
0.004013616909
0.001273021927
0.0008575760918
0.0004447912727
0.0002645307932
0.0002197454983
0.0002894779626
0.0003378202133
0.002301879457
0.002760654353
0.003029183281
0.001846417036
0.002151474291
0.005797728468
0.00584920358
0.004937858622
0.002649865776
0.002295080593
0.002296479396
0.00224506606
0.002554043851
0.0009415428498
0.0002705454355
0.02300142406
0.03066743626
0.03424893841
0.03184507252
0.01183087998
0.007208757868