/*--------------------------------*- C++ -*----------------------------------*\
  =========                 |
  \\      /  F ield         | OpenFOAM: The Open Source CFD Toolbox
   \\    /   O peration     | Website:  https://openfoam.org
    \\  /    A nd           | Version:  12
     \\/     M anipulation  |
\*---------------------------------------------------------------------------*/
FoamFile
{
    format      ascii;
    class       volScalarField;
    location    "0.4";
    object      omega;
}
// * * * * * * * * * * * * * * * * * * * * * * * * * * * * * * * * * * * * * //

dimensions      [0 0 -1 0 0 0 0];

internalField   nonuniform List<scalar> 
136973
(
3.985265176
0.9464618731
3.766777652
5.646250772
0.9080100326
1.052063355
0.8634732329
3.178012222
5.709422702
7.355015077
0.8710859907
1.004945688
0.8080946345
1.083107534
0.9499387949
0.8361736039
2.964174757
6.162792489
7.910433173
9.365725796
0.8557124361
0.9580333669
0.7968790975
1.026425906
0.8801696361
0.7878965833
1.161112515
0.9803190949
0.9504102696
0.8662525233
12.67234179
20.16157803
13.16485265
10.70146922
9.392881547
0.82314026
0.9401406723
0.788821261
0.9700864216
0.8544133985
0.7670793406
1.090667634
0.8897424026
0.873494646
0.7911992224
1.258927592
1.328280461
1.068424939
1.012663206
0.8739325744
62.36879197
95.77851097
57.83879529
33.64675404
12.54097423
6.766296485
0.8091066418
0.9010085289
0.7818956135
0.9492119971
0.8442355295
0.7633608436
1.029192848
0.8642423669
0.8414248357
0.7794449143
1.092226973
0.9358205613
0.8952973615
0.9148994296
0.8123808221
3.326643619
4.411430606
2.636896095
1.561754565
1.090124361
0.8750620765
413.8668214
310.3806549
211.972768
136.9242046
49.78377364
17.82952124
3.580733205
0.7823405083
0.8847734745
0.7710310696
0.905988793
0.8313467137
0.7557010906
1.004620597
0.8484229128
0.8331314309
0.7721713343
1.038051133
0.9080011688
0.8631122221
0.8770454666
0.7765813571
1.075139443
0.959663786
0.9691160836
0.9631730112
0.9647044916
0.8163770881
12.80344432
10.00797553
7.970853858
5.766671285
2.079400659
1.16389538
0.9418086618
570.8774488
509.2723188
397.1823136
299.3737782
207.4773677
87.78973635
17.62618309
2.74010123
0.7698425426
0.8542094193
0.7630087115
0.8885059186
0.8207626462
0.7487986774
0.9544636557
0.8375592089
0.8205641936
0.7623347004
0.9965925569
0.8855984747
0.8508179113
0.8702187369
0.7730957901
1.016012243
0.9321598808
0.9392799969
0.9252145396
0.9205836283
0.7838257133
1.01443166
1.050653701
1.038177092
1.119541856
1.042483696
0.9930805852
0.8974379507
16.25721269
13.74285191
11.23954253
10.07942897
8.224795756
3.110302818
1.230334295
1.080364141
513.6946815
553.6754477
504.3086441
429.4777879
353.4012754
262.4195337
91.05327112
14.90327086
3.558450917
0.7465098454
0.8398007227
0.7508948688
0.8554875899
0.8089130106
0.7404682612
0.9333890146
0.8231459998
0.8109526533
0.7569531012
0.9442583264
0.8741896258
0.8369756225
0.8526368912
0.7567741276
0.9673007923
0.9034525746
0.9216789062
0.9149002221
0.9099114628
0.7716123395
0.9504617996
1.016619176
1.002306213
1.076665261
1.006818572
0.9463577216
0.8448145166
1.139477374
1.222851032
1.214439867
1.286036621
1.268512756
1.109715741
1.040157328
1.046857903
11.92846319
13.67380898
12.71280941
11.65848007
11.22456689
9.995402237
3.31035981
1.190301717
1.339861717
531.0401871
592.9936236
548.5312858
504.3085225
428.7388423
363.5285734
287.8638937
80.59909521
9.989674945
5.121623076
0.7352244779
0.8125451302
0.7416611276
0.8398068008
0.7980100554
0.7327495799
0.8926022333
0.8155548978
0.7996148314
0.7464899484
0.9171647935
0.8545710564
0.8238366868
0.8443317629
0.750753828
0.9154783702
0.8905148536
0.9083613684
0.8948795258
0.8842893221
0.7514639638
0.911818886
0.9880917143
0.9840590733
1.060710627
0.9874423446
0.9333174145
0.8237066967
1.06003972
1.167681572
1.170734402
1.239728722
1.211599858
1.06065702
1.005769619
0.9759712812
1.282087929
1.764681458
1.87826917
2.070960837
1.933194208
1.787907846
1.300593236
1.036100497
1.294570002
11.99945431
14.9300189
15.35165953
15.63767811
14.43896493
14.48028927
12.04418491
2.945729232
1.142230998
1.401053831
545.5400543
625.5075493
660.2214176
640.8623018
529.6252533
432.3452281
388.2274024
280.4923624
52.81693497
8.052159359
5.469795246
0.7132077497
0.7984797156
0.7290574552
0.8101923754
0.7853582552
0.7234369958
0.8738108511
0.8014339917
0.7894998882
0.7405258028
0.8703933948
0.8446950043
0.811939578
0.8279160621
0.738361041
0.8849249796
0.8665072443
0.88867756
0.8832711753
0.8729673708
0.7425630993
0.8475449708
0.9678166384
0.9658677403
1.03456598
0.9586826519
0.902148882
0.7803661585
1.024538618
1.140939395
1.15111423
1.21554936
1.193325486
1.049168999
0.9859243293
0.950369678
1.172677304
1.63982189
1.757959066
1.977998301
1.884962602
1.79371816
1.266843584
0.9900948528
1.229182828
1.899850401
3.727483947
5.634891678
7.479546421
6.933180515
6.262689844
4.508310497
1.222566588
1.007214591
1.351328441
12.79342507
19.26074843
29.83938126
40.41621069
38.20819914
34.11480336
32.14434103
11.11607679
2.115140061
1.087547997
1.34850758
568.3909892
620.6312041
705.7508277
778.5459164
773.3849334
583.8600505
485.7705996
384.154941
248.0630367
30.70186519
7.291182152
5.12962862
0.7018685739
0.7703179162
0.7190435832
0.7951177736
0.7732203046
0.7150849051
0.8379418707
0.7937460331
0.7774888812
0.7292540784
0.8469581334
0.8258131697
0.7986820552
0.8188985209
0.7322904191
0.8327361775
0.8539990839
0.8763839374
0.8632241888
0.8507725907
0.7297207425
0.817474462
0.9396067396
0.9430166055
1.014746845
0.9437500532
0.8889281645
0.7595618864
0.9595444407
1.082681396
1.114376136
1.179195033
1.154273159
1.021403475
0.9502969516
0.9017503011
1.150965435
1.57500836
1.646456744
1.840049673
1.821627378
1.865904163
1.253982116
0.9780807112
1.201409478
1.619265869
3.315317763
5.0648273
6.992191169
6.946446091
7.718069727
5.097035623
1.17158818
0.9812293768
1.289760761
2.950552383
10.1642581
22.6727201
35.58375656
34.8254666
29.56313918
29.93721241
3.212280379
1.121667728
1.0132901
1.299033233
13.38046115
23.81042764
62.13930477
113.1124542
125.7222464
100.7136697
99.98395541
25.65098948
9.187499126
1.498107787
1.030524871
1.266340242
671.7225833
627.5475182
648.7984228
762.8490166
846.5461315
827.0349126
658.6806381
483.098853
369.3222484
180.1019647
15.93869951
7.371520308
4.783531742
0.6795021773
0.7540284984
0.7065964102
0.7646541614
0.7595353833
0.7052004246
0.8214615846
0.7785648294
0.766607114
0.722553258
0.8057435238
0.8156045535
0.7865321202
0.8016685578
0.7202813041
0.8043480041
0.8293850965
0.8555090643
0.8509816582
0.8398604865
0.7223538308
0.7702816298
0.9165675863
0.9242481694
0.9872320648
0.9152146612
0.8636048482
0.7422053624
0.9301509423
1.052868076
1.088207133
1.151688983
1.133455365
1.008798432
0.9320370138
0.8788019809
1.068803184
1.427361853
1.502351637
1.724887819
1.749992855
1.913834986
1.233997151
0.9427548815
1.148844021
1.579697933
3.114649498
4.419875206
6.047257482
6.436007086
8.332748818
5.335030927
1.158899772
0.9617822623
1.263918053
2.403356945
8.388204178
20.24692465
32.19907452
34.61738414
36.58473284
37.67630259
3.219023979
1.083590575
0.9737558211
1.242985204
3.693746167
18.43888216
62.58579082
111.7334853
122.9624646
98.44791362
102.7378155
22.37826272
1.65365418
1.050549787
0.953036877
1.221416736
14.56988581
28.61662359
85.08173853
147.6645681
173.6155654
175.4864434
155.2611772
86.24365803
14.74422236
7.324381067
1.131901173
0.9565341458
1.184326473
779.7638453
771.2281296
646.4783459
649.0437443
748.270502
863.6638435
832.7583564
677.5588824
446.8485178
345.0610017
75.53376668
10.18257754
7.395534527
4.692222998
0.6689993801
0.7301156814
0.6965423376
0.7457906774
0.7461001558
0.6967036833
0.7920625854
0.7696032187
0.753728507
0.7107292996
0.7848203808
0.796309862
0.7728190557
0.7920592656
0.7142613929
0.7521886569
0.8148845778
0.8422873896
0.830199649
0.8182538985
0.7107902485
0.7550106052
0.8868386223
0.8983658297
0.9645286034
0.9009734084
0.8512933693
0.7266211541
0.8882074355
0.9964936959
1.04974697
1.115300449
1.094865642
0.9814681626
0.8991468253
0.8380365705
1.041436769
1.359107646
1.416401017
1.587492948
1.663368578
1.961880181
1.222705478
0.9269309818
1.122955525
1.339235712
2.523851044
3.670265583
5.300097464
6.193486329
9.54953497
5.824184129
1.122391885
0.9337348237
1.206704892
2.288713557
7.732887563
17.94989113
28.72107531
32.01393328
39.38757074
40.95849875
3.272309818
1.064481112
0.9582553155
1.215533278
2.922458901
14.93987305
49.59786061
101.0219432
121.7570732
109.2002638
125.3421379
25.98932269
1.584956844
1.000914624
0.9263881973
1.17148967
3.103787422
23.09864362
87.14557114
143.432052
170.8756742
172.0419438
150.1901558
100.4685519
6.395779376
1.266057325
0.9530005352
0.8968430397
1.143424303
16.43307763
25.73010443
92.02043264
136.4118814
168.0169046
191.3801644
193.1030792
179.7522368
39.76960984
12.24705618
3.379657326
0.9760833113
0.8859678036
1.110723104
619.8368131
903.7904469
812.1316788
611.8268782
572.870608
746.181603
869.1298419
833.2498139
634.5249102
389.7311395
279.5640585
28.38342998
8.940569226
7.672838972
5.618146505
0.6544420296
0.7098279077
0.6851095072
0.7022521709
0.7320961462
0.6864674015
0.7716282627
0.7529028436
0.7423022308
0.7037694404
0.7463928108
0.78588829
0.7601252739
0.7740733371
0.7022388988
0.7245760176
0.7905409359
0.8204779754
0.8177111609
0.8074661903
0.7043285369
0.7326376566
0.8639492597
0.8786772486
0.9356763447
0.8726378763
0.8275951511
0.7124921027
0.8670018995
0.9672028835
1.015602767
1.082973218
1.072878675
0.9664606561
0.8827052793
0.8178715676
0.9842330232
1.252823719
1.296654702
1.488574627
1.582950445
1.970258288
1.200966518
0.8940404643
1.079187383
1.277346106
2.313887715
3.252127692
4.51912919
5.601884507
10.35473101
6.120650753
1.1051864
0.9188620804
1.18124825
1.806372433
5.821073868
14.37677311
23.98113296
30.25901618
46.0268843
47.99653467
3.28735596
1.037084042
0.9284105953
1.162899246
2.80004493
13.59100989
45.75616139
96.67947505
117.6488798
113.7711779
135.3797494
27.67385036
1.573353425
0.9905522131
0.9088883177
1.147817892
2.402422346
18.50233073
74.48862507
142.0611467
176.1589256
181.666124
169.7753032
112.9091644
6.510510243
1.212522163
0.9263621598
0.8637837899
1.101444053
1.723854466
19.48221671
94.06992632
130.4726112
162.5433072
187.5500323
187.8423753
177.6721262
43.80000394
2.09704259
1.124441464
0.8778055475
0.8195202812
1.073381895
15.47799933
21.88021297
87.81390213
128.8209714
117.455935
152.0355212
193.4980946
197.3691843
143.9656415
17.10686582
10.64325037
1.506838935
0.8714339887
0.8367049323
1.050881805
430.8738242
628.5167705
965.8767339
825.2428016
527.3283873
550.254743
795.7852613
863.4558451
816.0558511
501.9764602
369.9267714
113.1712313
13.0989273
9.122572691
6.367333952
0.6496773221
0.7035130764
0.6758465389
0.6943767128
0.7183056706
0.6783986843
0.7248643513
0.7426914897
0.7288474899
0.691614637
0.7200909504
0.7665478155
0.7459314836
0.7642562711
0.6962026512
0.688749014
0.7753022324
0.8066453757
0.7965146371
0.7862419907
0.6931547212
0.7223966581
0.8353709228
0.8515301527
0.9119792351
0.8587383376
0.8159690494
0.7004014151
0.8312393437
0.9215766933
0.9771515401
1.043184097
1.032090016
0.9336825766
0.8525238111
0.7804566844
0.9598266713
1.199075215
1.235279952
1.370050327
1.479815391
1.959876962
1.175951459
0.8782228143
1.056957367
1.138785991
1.89681126
2.652829311
3.860261936
5.281889647
11.37915575
6.32765728
1.067475515
0.8912820186
1.132384346
1.666711583
5.162265107
12.52605193
20.91832786
27.11763188
51.0734422
52.52387102
3.254152359
1.022428947
0.9129308226
1.136298236
2.137254732
10.06601269
37.10656812
83.20532837
111.8396474
123.8313941
158.0477124
30.1105294
1.519103426
0.9637127719
0.8821836603
1.101518909
2.358620609
17.37027864
70.62701735
141.355973
178.3948599
185.5541401
178.0219881
128.5426361
6.846427191
1.192955918
0.9109091584
0.8516999145
1.081435337
1.472601451
15.13154966
83.50456798
134.6440754
171.9868257
197.9583927
200.360859
201.9383904
47.16533145
2.029254122
1.07515415
0.8590217281
0.8006448471
1.038708624
1.103376245
7.919468587
92.30801142
122.7003143
111.3037069
147.3639494
188.3456994
189.6386637
147.058986
9.909368854
1.369244717
0.9914530768
0.8123571036
0.7887812591
1.018181228
12.84804834
16.45687964
51.05882072
143.7885328
93.57297266
59.76038613
149.2028567
194.013361
190.9130177
69.56224683
13.11423986
4.870048095
1.013007162
0.8430105136
0.7440739636
460.3526261
424.1170172
674.2195314
1033.689905
748.3822561
502.121699
615.5844134
809.958808
826.3522851
695.5134312
410.6227777
309.4614689
34.7347224
11.08339508
6.651156368
0.6409718082
0.6761622745
0.665997729
0.6852823565
0.7046855336
0.6680574024
0.70253047
0.7244956881
0.7174010859
0.6848692849
0.6914776
0.7559219319
0.7328119813
0.7458734052
0.6843544759
0.6801361895
0.7525020764
0.784573094
0.7841469823
0.775621315
0.6872066747
0.7067803942
0.8121361114
0.8324485195
0.8834334585
0.8311745926
0.7933983357
0.6888616778
0.8129467178
0.8979494043
0.9453771389
1.007623657
1.006420884
0.9136707993
0.8375768667
0.7617518756
0.9148656744
1.118709375
1.146527133
1.293247263
1.393395834
1.873464499
1.127393814
0.8491504214
1.01663144
1.08817115
1.723324366
2.341642621
3.285525344
4.647513067
11.82919031
6.337067489
1.047094464
0.8774166305
1.108884976
1.385242992
3.861587153
9.716424483
16.67631385
25.05609666
58.19145562
58.26461866
3.147835235
0.9920395865
0.8848411317
1.090365308
1.948596925
8.745690273
32.78278239
75.98169068
104.3254629
132.1642481
172.8622881
31.51076792
1.491751966
0.9509536658
0.8675404327
1.078116268
1.826791352
12.85796874
58.24703391
137.0702617
181.9033765
193.2960877
196.8969009
144.6004632
6.934546744
1.165634967
0.889002446
0.8275288239
1.041536919
1.430121091
14.38431421
80.3260351
136.4203136
175.5545107
202.2180062
205.8682353
212.2928904
54.81129764
2.034429499
1.061582135
0.8448962106
0.7879136627
1.022353364
1.021637554
6.201398114
77.7174777
127.3775294
128.4305013
158.1147376
199.7227009
204.1398954
169.2956319
10.71053025
1.300635352
0.9526381306
0.7843068087
0.7628373421
0.9915496629
0.9227292371
2.176699337
44.91816923
137.0336763
86.3892308
57.15791514
146.0307399
187.9097729
188.6949306
82.86402881
2.336174679
1.210112384
0.8763893456
0.7678220156
0.7021235675
14.06666252
12.15083473
21.44425308
134.569942
140.9521
41.65174425
48.59585674
145.9630611
164.3579161
74.64156271
19.49462244
12.12860576
1.748103877
0.9236136484
0.7222395093
472.153568
518.8127449
495.6807095
807.9987038
1038.738496
710.7938423
519.1193462
642.6978364
760.296733
685.1809565
500.7126848
379.2630081
112.1382523
14.92089726
7.300116694
0.6370694302
0.66985625
0.6572236055
0.6745194219
0.6918026589
0.6607083575
0.687338356
0.713363896
0.7038788989
0.6726697309
0.6648290808
0.7367864819
0.7185036481
0.7363516693
0.678387711
0.6653151794
0.7384583708
0.7710502163
0.7628923625
0.7550791828
0.6762373315
0.6992309354
0.7870307763
0.8063785733
0.8605006709
0.817656577
0.7824844595
0.679406288
0.7827280688
0.8601610268
0.9086705781
0.9707728599
0.9645765072
0.8759617496
0.8102542108
0.7247720502
0.8890843486
1.07822812
1.100372037
1.199986064
1.280176127
1.733057864
1.079520073
0.834608073
0.9963000749
1.00309761
1.466523526
1.921452333
2.718243561
4.251918141
11.85357513
6.121701202
1.006947222
0.8506033274
1.063759649
1.288498416
3.35361505
8.265083682
14.48052327
21.96849677
63.67311331
60.42007177
2.999423549
0.9761570982
0.8706444663
1.067017253
1.554542821
6.289554916
25.67897447
62.63536296
95.41238711
143.4753589
194.6803542
32.12783227
1.42555634
0.9252051282
0.8420054168
1.037828752
1.68924436
11.19256148
52.2657243
131.1804066
183.4382239
197.3995228
209.8366413
160.0084657
6.929255384
1.150305195
0.8773941145
0.8158561732
1.021392748
1.257893892
10.47650165
69.74099102
138.3524282
183.4546948
211.8633685
218.4892088
234.6722973
57.83873848
1.967282663
1.035214195
0.8263595429
0.7690150946
0.9887883381
1.005425987
6.105318203
73.97124983
129.400371
134.6915077
163.1289028
204.5455022
210.5149297
180.315533
11.46094828
1.279044328
0.9426095758
0.7773707479
0.7561238514
0.9781087281
0.8801165188
1.892028681
37.29417356
137.8580871
103.1290784
66.60418077
149.5620067
200.781456
207.3200289
86.60129124
2.273000025
1.147093418
0.8549037447
0.7547195181
0.6833860305
0.8481417607
1.118325224
9.481387375
131.7795892
131.090316
35.93965471
45.33578959
145.8750806
174.4146866
89.27756139
12.96422013
1.420702009
1.021740629
0.8283995864
0.6752612627
15.55552806
15.6866314
13.32790143
55.58036581
185.4968699
139.6231897
35.69388097
46.89550443
73.82651835
47.72515688
18.74430568
14.16441044
4.908581882
1.109420623
0.8226278325
664.7622377
585.0081286
580.1039031
587.3231275
900.8001834
906.0276853
632.9161786
524.5488398
611.5516781
630.8911324
507.5248969
441.5493032
281.9822624
29.28010755
8.995643227
0.630638726
0.6449351758
0.6486459407
0.6643620709
0.679001691
0.6503461699
0.6781327956
0.6940755977
0.6930405488
0.6664498122
0.6644036729
0.7266915473
0.7053593934
0.7181888487
0.6669053551
0.6579365095
0.7190736076
0.7497043145
0.7509839149
0.7447813964
0.6707209617
0.6852999302
0.7644158741
0.7886606148
0.8331134093
0.7910602627
0.7612188695
0.6695915274
0.7672397578
0.840810068
0.8815018437
0.9362291122
0.9393334716
0.8554800754
0.7966824925
0.7047209352
0.8497727374
1.010931245
1.036978443
1.144992069
1.201108869
1.542865252
1.011093981
0.8085148236
0.9571080376
0.9679778932
1.343896788
1.700730665
2.299932592
3.549136955
11.22206254
5.55801262
0.9851860956
0.8375480566
1.04168844
1.135548132
2.529131888
6.24385027
10.98333962
19.64089307
68.31072334
60.60319493
2.739300637
0.9442578273
0.8434680669
1.025146763
1.421663642
5.368206612
21.95384244
55.49501867
86.24009943
152.9430744
209.4871923
31.93693685
1.383677223
0.9121577722
0.82921767
1.01732007
1.377321391
7.95478005
40.13676168
122.1556199
184.2422504
205.0082925
230.2262946
175.3775887
6.701687786
1.119755533
0.8560528963
0.7944716648
0.9861881927
1.209235772
9.112040777
62.75671728
138.5511643
187.3344702
216.8467864
227.1638003
248.8910486
62.76267635
1.935656459
1.02196034
0.8162265345
0.7590137318
0.9718649374
0.9662796214
4.575481435
61.35656011
132.9766079
146.6041596
175.0375387
216.0884334
226.4752534
200.0305691
11.71979653
1.248123456
0.9213360643
0.7611685876
0.7387311404
0.9500038811
0.8692798503
1.833984863
35.17905932
140.434509
110.1841069
72.84344726
151.6494345
206.0210529
215.4172789
95.74756099
2.303102686
1.129874625
0.8424023363
0.7452005632
0.6773350447
0.8150874209
1.05984001
8.33089647
125.814632
133.6423519
38.21092642
44.73400949
148.0150171
178.9114024
88.99910455
13.03555261
1.348480635
0.9881366332
0.8106226995
0.6630134423
0.839659706
0.9149977634
2.036188234
49.57334365
174.2462569
125.9500176
25.83475598
45.32925991
87.32429018
54.88479663
11.14434971
2.020983807
1.205680762
0.9564476861
0.772549526
39.20537694
22.00715643
16.68245098
19.03340844
130.3005757
191.9306434
147.8695179
28.25154734
22.23495156
20.29889733
15.11510706
14.81139993
12.2232203
1.639481613
1.167397886
986.0749585
898.4437064
664.8424001
617.5758754
624.5583918
915.4383559
774.3976845
552.1570511
524.8200098
539.6205975
492.2942669
454.1045466
389.0956385
70.41919442
12.00676577
0.6255431877
0.6393975784
0.6403154785
0.6524941169
0.6674416796
0.6437071509
0.6657335459
0.6822243927
0.6798182818
0.6545241432
0.6552355794
0.7076485513
0.6912942332
0.7090379607
0.6611309231
0.6453048977
0.7073403159
0.7369008902
0.7300897204
0.7252892055
0.6601627222
0.6785276804
0.7445326179
0.7657089171
0.8121419676
0.7781150224
0.7509480666
0.6619444282
0.7415837067
0.8083834839
0.8468076782
0.9019239441
0.9006973566
0.8224457021
0.7722332779
0.6660295352
0.8304782486
0.9720638182
1.002766429
1.079817761
1.100098688
1.331214709
0.9580342673
0.795449631
0.9375737269
0.9144760292
1.194162132
1.439382041
1.844934466
3.079471751
9.734212984
4.772522163
0.9455578487
0.8118807636
0.9980885751
1.076910109
2.167935468
5.182988508
9.35244172
16.5057164
68.58890195
57.65411363
2.445831388
0.9280874535
0.8301753049
1.004036015
1.214866706
3.876658291
16.4529413
44.28097021
75.54305039
161.3999608
224.1187878
30.22640208
1.303653405
0.8862591077
0.8049485622
0.9807434122
1.276035121
6.694533849
34.46634771
110.2250241
182.7599642
209.2593926
246.8182874
186.0821675
6.345211042
1.099515603
0.8453870599
0.7838240401
0.9683206977
1.096461124
6.326399981
49.88213694
136.8600059
195.1630066
226.5990804
241.8514507
271.5486585
64.3580533
1.8372294
0.9943509037
0.7984797671
0.7421415754
0.941583506
0.9514292081
4.111562127
54.77119565
134.4606375
152.4645974
182.9852254
222.9011264
235.4713287
212.9803615
11.83675864
1.232150674
0.9107348572
0.7535389129
0.7311446407
0.9358360546
0.8496631738
1.56128622
28.41414376
141.4912217
126.505429
87.05558806
154.4273161
218.2871699
231.5335538
99.3557436
2.281796483
1.097739994
0.8253763092
0.7313993125
0.6678517484
0.8073106108
1.042417946
7.744503535
124.349027
138.9019089
40.75917938
45.70145884
150.4700023
190.3652823
95.94317274
13.88156592
1.324454864
0.9704727422
0.799163149
0.6571115948
0.7936908076
0.8764607202
1.880091505
44.53343689
179.9965872
123.3273738
24.84419541
42.23149061
84.81769306
51.44550782
10.84503592
1.917367126
1.156249492
0.9284564073
0.7520602923
1.078532349
0.9358624504
0.9741568904
9.03452112
127.2642452
182.4228537
134.098795
19.4085005
17.69960344
14.33188848
5.625772976
2.314276688
1.455228091
1.161098259
1.097799743
47.07898231
47.51265185
24.17972211
16.92556485
40.69169423
162.0482478
183.3105088
123.7879726
14.39974059
13.14360177
12.97217848
14.16877215
16.82859332
3.549070953
1.471092554
960.8587079
1037.491021
955.1385091
721.9199583
626.4822587
668.6196483
777.8146857
625.7664262
453.0504602
471.6783912
459.4575481
448.5221573
443.4010225
158.4587591
27.34117717
0.6202256229
0.6295196204
0.6324728703
0.6348944897
0.6556097822
0.6335596606
0.6568860021
0.6629541869
0.6697307139
0.6486372835
0.6495944812
0.697447022
0.678682643
0.6915357857
0.6501493524
0.6390491308
0.6917848535
0.7168769969
0.7189162816
0.7154988396
0.6548306962
0.6657641576
0.7218900011
0.7494292881
0.7861828355
0.753038412
0.730972007
0.6528300462
0.7284334722
0.7918865638
0.8261238197
0.870917267
0.8770943176
0.8060333781
0.7600683099
0.6470029358
0.7962435244
0.9157694744
0.945119337
1.040537329
1.05014823
1.1390429
0.8968711499
0.7715198276
0.8971415587
0.8875049894
1.117554987
1.304002744
1.617767904
2.38765294
7.563742076
3.83250531
0.9222258739
0.7994331673
0.9765037337
0.9899335541
1.690345445
3.74344633
6.581348071
13.9062086
64.89383141
50.73753383
2.05893805
0.8966765942
0.8042994655
0.9642024337
1.141531544
3.281691072
13.63956241
38.35546372
65.42060334
163.9109957
227.301689
26.62907961
1.254028301
0.8732848711
0.7931681509
0.9623382035
1.110002339
4.722588408
26.03384295
97.8541481
178.5744707
215.9144677
267.2427954
190.5032067
5.744222944
1.063987895
0.8243397808
0.7642401204
0.9361464164
1.054259973
5.278490007
42.32650874
130.9069116
199.3386722
232.5941837
254.1063502
287.5898563
64.71868295
1.765859731
0.9796809461
0.7896449608
0.7336552926
0.9262503954
0.916554297
3.037966258
41.31271801
135.4988539
163.7099473
195.5537018
235.2720286
251.9928961
230.4782561
11.73953004
1.198768041
0.8901221678
0.7396626086
0.716716597
0.9093193718
0.8399528416
1.479524354
25.33479148
141.7428616
134.3932864
98.92574796
157.8540136
226.1571167
240.5322133
102.6897503
2.250132664
1.081144051
0.8163557512
0.7240840772
0.6629654455
0.7929481379
1.00103118
6.124882142
116.1567486
146.0960677
48.64579799
46.22035384
151.3476342
196.2792577
97.53720485
13.95291006
1.2964979
0.946397428
0.7822742598
0.6481744954
0.7826985955
0.8682007745
1.740524352
41.98345418
183.7377398
122.6052321
22.91759943
41.77089031
89.87542082
53.24214931
10.94617094
1.890609144
1.130897596
0.9121459506
0.7366228246
0.8037723356
0.8577711893
0.9228856702
8.378444267
127.2022685
191.8903703
132.3262886
19.87241265
17.54948871
13.71283905
5.279150476
2.219591931
1.383531778
1.117785525
1.068314904
1.14778232
1.271617309
1.080894549
1.984837212
36.06547577
159.6759635
177.6444344
107.5392618
5.62931215
4.344065504
3.040601711
2.2577028
1.768263732
1.393321186
1.385965075
41.33010706
51.35673141
48.11107786
25.00881782
17.45322892
72.408129
140.9518263
172.8305219
37.35843877
11.72646863
11.77479486
13.37902792
18.57214631
7.12280047
1.821415579
863.5180992
985.7508926
1033.202461
969.5930416
737.5478098
669.6100817
706.8445446
704.5706249
481.9280553
414.7343927
424.0778479
435.0517986
466.747986
248.0581231
42.40535829
0.6071766562
0.6248276172
0.6237468439
0.6263626968
0.6448740987
0.6274746591
0.6439155213
0.6518383723
0.6570485655
0.6373501493
0.6414651697
0.6789049273
0.6651540489
0.6827769847
0.6446483283
0.6289235504
0.682020191
0.7048703405
0.6987735123
0.6972316665
0.644765638
0.6594032398
0.707631573
0.7302151452
0.7675949887
0.7408513802
0.7212581971
0.646077571
0.7067534975
0.7631701367
0.7931015484
0.8388589395
0.8410448256
0.7789546327
0.7378508269
0.6424451976
0.7803085003
0.8866962455
0.9148251349
0.9862695501
0.9863986106
1.000674908
0.8633150186
0.7597066432
0.8750825962
0.8426640777
1.030495778
1.161128493
1.346573725
2.000597863
5.340075473
2.922373476
0.8807801626
0.7749279897
0.9318287755
0.9541415616
1.463939793
3.00250745
5.425570384
10.91449741
55.76680955
41.24973134
1.721443366
0.88085223
0.7916815138
0.9442244676
1.033115471
2.372432044
9.733809048
28.41669633
54.51805302
162.827137
226.2971022
22.0476752
1.172747877
0.8477058624
0.770435032
0.9275190036
1.055156068
3.98245132
22.14869935
82.65107657
169.6062419
219.0849027
283.4852824
190.3195398
5.03732224
1.041141376
0.8140227137
0.7543479327
0.9199829207
0.9800853207
3.582172651
31.55265365
123.4836305
204.1681092
242.5672871
271.533763
308.0461384
63.28927939
1.634154975
0.9508356807
0.7727382216
0.7180902059
0.8980042934
0.897480132
2.621822986
34.04272651
133.7255506
169.8345391
206.1170168
244.3700288
263.8953287
242.1606486
11.2945487
1.181396342
0.879265879
0.7328424714
0.7097986713
0.8959466232
0.8197430484
1.293713274
18.67341024
139.1046593
146.3521883
115.4463268
162.5442285
239.5908584
255.5771223
103.6392582
2.159517536
1.049184539
0.8002798637
0.7121620176
0.6546364362
0.7840968196
0.983477867
5.431639616
109.5570557
153.9587496
57.79313552
48.7144282
151.9642326
204.3915474
98.4188509
13.80551956
1.28000435
0.9332004989
0.7733452118
0.6433533917
0.7724149859
0.8520375308
1.533901006
35.22145214
189.4472626
123.3666427
22.52973249
39.28323651
90.67150434
52.13226858
10.11027279
1.8075448
1.102248641
0.8867728946
0.7128569047
0.7852814355
0.8436180603
0.9097649319
7.383050544
127.4732107
196.6173034
128.2644582
17.78667342
19.0633054
14.05346079
5.2227765
2.196015242
1.348334253
1.094254504
1.046585272
0.8048516294
0.9069256985
0.9698573105
1.83159709
34.78130574
169.9499957
189.0224083
112.5865495
5.923921443
4.231598526
2.941778482
2.161786315
1.647317153
1.330943594
1.339023374
1.021910009
1.343452476
1.773025816
3.411657465
6.107728307
71.63298236
137.782697
166.6663166
26.1880857
2.966979239
2.377574625
2.082553823
1.960518255
1.678500229
1.674685576
28.63515057
41.39758474
48.80429948
48.73930087
37.33833215
35.96838972
102.2599915
163.5250608
137.3011099
12.0405936
11.34854541
12.72841188
19.16105547
11.94179416
2.194745127
733.0842453
841.3301852
980.3297051
1050.729754
973.968143
762.7457536
717.8715527
693.6576073
519.8704562
391.9672666
398.180265
415.7000985
477.4543504
346.0542187
113.7873118
0.6031646918
0.6161517831
0.6175686071
0.6137465505
0.6339948953
0.6175801164
0.636386014
0.6343379145
0.6475864998
0.6317543283
0.6337840627
0.6688502391
0.6535672948
0.6663307246
0.6341593411
0.6239550449
0.6703690613
0.6862318956
0.6885868195
0.6880552166
0.6396680657
0.6473697512
0.6862534247
0.7148747897
0.7428102088
0.7176215841
0.7023576306
0.637492248
0.6956293607
0.7487266856
0.7767043103
0.8143277794
0.8197171719
0.765182545
0.7267542846
0.6340815393
0.7513154504
0.8400594214
0.8682755117
0.938762073
0.9579117803
0.9258408375
0.8252680915
0.7374476877
0.829824676
0.8197677252
0.9856042643
1.087922214
1.240822126
1.550339813
3.355098802
2.092180626
0.8605647331
0.7629853299
0.9068315075
0.8976071096
1.225707723
2.135561666
3.558233022
8.433822254
42.29595459
31.68933526
1.393036213
0.8507394162
0.7671528278
0.9033469423
0.9901836527
2.017379471
7.748343782
23.39528005
45.91555457
153.3263428
214.682045
16.7051698
1.132112113
0.8348782695
0.7594185732
0.9100341907
0.972538162
2.874550031
15.9293539
69.62838908
156.6680107
221.6094565
300.1301001
184.600562
4.178915077
1.004410511
0.7933937823
0.7361012492
0.8889619801
0.9517768456
2.96557802
26.4505296
111.258401
206.5817812
250.1708967
287.7645705
322.9301401
59.78355634
1.53728017
0.9355435952
0.7643763336
0.7105596982
0.8838430267
0.8638730891
1.912061525
24.54679711
129.2120604
180.1404433
218.8413066
258.1705125
281.2315938
255.5602437
10.66003413
1.145103348
0.8583650418
0.7200493456
0.6969588066
0.8701469081
0.8092370185
1.224787534
15.63625309
131.9399103
153.7932599
131.3435618
169.4605602
249.8929462
265.2142315
103.5190759
2.076149957
1.032237114
0.7922503964
0.7061352707
0.6504535118
0.7731879555
0.9471703986
4.00945918
95.88104161
163.9366635
72.93742842
51.13888368
152.11815
211.5543992
97.92169945
12.93351093
1.249628992
0.9088755863
0.7585826941
0.6368340874
0.7630340468
0.8422686617
1.422475621
31.74475407
192.055251
126.0529943
22.43892577
38.20313033
92.86702203
50.80959643
9.707527976
1.763621897
1.083016257
0.8736255007
0.7012083799
0.7703443737
0.8330673536
0.8812386037
6.518123533
123.6989576
207.196778
126.6372003
17.14018349
19.29628745
13.60285411
4.880323272
2.118538214
1.309051047
1.05638953
1.011319419
0.7878590958
0.887940434
0.9477186105
1.745143429
32.57253823
174.2958894
195.5262501
112.9006062
5.933760389
4.324121709
2.936820876
2.132525581
1.616900409
1.295481318
1.307475094
0.7948768686
0.9599430074
1.357857744
3.038869912
5.643785562
74.52007004
152.8030174
176.3600438
29.84375292
2.952840865
2.315970272
1.972405447
1.822181377
1.598431745
1.624092426