/*--------------------------------*- C++ -*----------------------------------*\
  =========                 |
  \\      /  F ield         | OpenFOAM: The Open Source CFD Toolbox
   \\    /   O peration     | Website:  https://openfoam.org
    \\  /    A nd           | Version:  12
     \\/     M anipulation  |
\*---------------------------------------------------------------------------*/
FoamFile
{
    format      ascii;
    class       volScalarField;
    location    "0.4";
    object      p;
}
// * * * * * * * * * * * * * * * * * * * * * * * * * * * * * * * * * * * * * //

dimensions      [0 2 -2 0 0 0 0];

internalField   nonuniform List<scalar> 
136973
(
-6.552325368
-6.153043181
-13.58557292
-6.586951024
-3.392731805
-10.93610904
-7.210114178
-18.9520768
-12.34167193
-0.1725746251
-2.032831987
-4.858294317
-5.525565717
-13.58097262
-15.70808889
-5.336010242
-22.73419009
-16.29474015
2.480038048
1.978634558
-1.432812232
-2.730733026
-4.629411636
-6.287205669
-8.057754242
-5.076906443
-11.41791581
-21.09422901
-14.58304141
-0.4428215898
-23.09567076
-20.50316283
5.943448876
5.998500413
2.906248565
-1.215236669
-1.847996142
-3.863644451
-3.638079087
-6.457360064
-5.432204047
-6.984987757
-10.79476928
-8.325496729
-3.75033525
-10.8729262
-23.18992436
-20.64468838
-9.027554697
3.532904389
-14.06437703
-21.19821612
6.332373958
11.89823525
3.828269454
3.716400142
-1.008940079
-1.478387987
-3.475285746
-2.547395389
-4.948668153
-5.052943858
-4.473937167
-8.54821385
-8.247844674
-5.351301622
-7.822000956
-13.56575918
-11.84284797
-7.882342756
-1.799736008
-8.37714137
-24.08872829
-25.06464125
-15.56815184
-4.207890537
4.261524769
10.1199964
-14.76456683
4.97942519
12.20895123
8.984751141
2.203266563
1.434770416
-0.8444787953
-1.181096087
-3.06889285
-2.037917662
-4.268738654
-4.74426936
-3.388728423
-6.372148672
-6.810338421
-5.840083229
-5.760613876
-10.75649809
-11.50419332
-9.039117567
-4.516378418
-8.508605143
-16.29115644
-16.13154616
-12.18146893
-6.981277397
-1.459623233
-6.857187336
-22.82935318
-29.24888923
-22.61014966
-12.28140618
-0.8025533397
1.434747118
32.2858155
4.556902569
1.138352793
6.532394738
7.160824647
7.467434338
3.803833592
-5.984345449
-0.6932717047
-0.9295007332
-2.714537426
-1.644468097
-3.624776563
-4.255654423
-2.698780804
-5.436121309
-6.084424955
-5.75528325
-4.711544831
-8.187205668
-9.143021177
-8.347469598
-5.637780394
-7.206891717
-13.56260875
-15.35914
-13.19992516
-8.921800568
-3.935774883
-8.687422896
-19.01292975
-21.45695972
-18.25330839
-12.27989725
-6.441899915
-1.516863692
-11.62790199
-26.63639028
-35.4573841
-32.20966566
-22.52635538
-9.765685663
1.19973019
-1.514016308
32.72715735
20.70341447
0.7505716591
-4.833636981
-3.476050893
4.715905575
9.232606173
5.233899972
-10.42891045
-0.5581210263
-0.7085336475
-2.366981964
-1.320455173
-3.092216766
-3.764510844
-2.203753608
-4.532787855
-5.203510291
-5.34079435
-3.842711794
-6.877641528
-7.959542
-7.658722801
-5.774181026
-5.997204674
-10.64095517
-12.13439568
-11.44569992
-8.871152003
-4.785787874
-8.466749827
-16.59278301
-20.2060547
-18.59193821
-13.90236653
-8.438981305
-2.498064475
-10.28013699
-21.86852577
-28.12861221
-26.61537712
-20.35641872
-12.08462055
-5.236822316
-2.297823361
-23.35327319
-43.37749479
-50.86656291
-48.56190767
-38.46312136
-22.89788877
-5.667657639
0.4895986904
-3.416102813
34.51761741
21.20769703
-1.887093823
-16.22732964
-20.42885474
-10.6708522
5.760843085
13.09084932
1.626657424
-9.178500674
-0.4358316803
-0.5117095951
-2.042742414
-1.038189578
-2.596792775
-3.247340837
-1.776833087
-3.828192982
-4.430447398
-4.801798897
-3.174775976
-5.65430768
-6.665288276
-6.726838026
-5.502271512
-4.739271584
-8.864578072
-10.32124482
-10.10761167
-8.274874197
-4.909466166
-7.787891998
-13.17435678
-16.02893435
-15.52200287
-12.68078922
-8.67954898
-2.744865745
-12.29775461
-20.36706301
-25.80892324
-25.5467435
-20.83502342
-13.95298194
-7.166305437
-2.375373462
-18.78424064
-27.19503075
-36.1719378
-37.87583458
-32.00989592
-21.6950236
-10.82960196
-4.726917244
-2.751817058
-30.87405291
-60.10541291
-74.62577888
-77.19670964
-64.92519444
-44.38786111
-20.50630056
-0.2611477569
-2.344585995
-6.148886126
31.08903336
28.24348027
-3.359819985
-40.10335615
-46.38435881
-36.62403836
-12.42464403
8.600111865
15.72774915
-4.34473591
-8.542659173
-0.3220988866
-0.333544358
-1.741808945
-0.7968904873
-2.148071404
-2.749435842
-1.379423784
-3.194869849
-3.685904839
-4.201468876
-2.604298068
-4.693672941
-5.588602967
-5.808663301
-4.990459748
-3.800803702
-7.202742398
-8.476023948
-8.615407639
-7.361896354
-5.015207686
-6.841016649
-10.75486421
-13.37411641
-13.23376425
-11.32079777
-8.228549817
-3.013425648
-14.54080885
-16.6554082
-20.32965056
-20.73486977
-17.86787456
-13.05487819
-7.524354514
-2.243417186
-22.1121382
-27.39492578
-32.53838842
-34.07073069
-30.03571033
-22.09298589
-13.05621944
-6.351413534
-2.297030135
-23.83312668
-35.39287828
-45.30623813
-51.63270165
-48.07417744
-36.11875164
-21.0800871
-8.686142884
-4.400802426
-2.766957622
-36.40367717
-70.6388743
-91.03317582
-108.8858295
-105.015828
-79.40642692
-46.07991855
-13.41138249
3.344501312
-5.189390805
-6.558861343
20.93368396
27.928673
3.603210356
-51.22161153
-104.558946
-82.47620265
-47.96381418
-8.72083507
10.32792238
14.05415069
-6.902122772
-8.91627233
-0.1968281199
-0.1617969377
-1.458635198
-0.58982953
-1.735583666
-2.278726671
-1.029187908
-2.642864155
-3.005741682
-3.600604011
-2.037549658
-3.843718318
-4.610965754
-4.913286789
-4.38233758
-3.489414158
-5.919544003
-6.96737795
-7.289708794
-6.379978037
-4.703164516
-6.103375024
-8.737005439
-10.84279956
-10.96143693
-9.727446097
-7.477650999
-4.049744548
-13.35185018
-14.07765829
-16.57608898
-17.17094784
-15.29296147
-11.78231955
-7.492070469
-2.170229214
-20.07926734
-22.53899147
-25.22459776
-26.71330013
-24.54635709
-19.16006833
-12.53521221
-6.320270527
-2.143326962
-28.13598105
-33.98841492
-40.58970212
-44.27794169
-41.71290203
-33.13167049
-21.73761847
-11.32993265
-5.670211503
-1.924301657
-26.95109026
-40.10495085
-53.6332775
-66.40892333
-68.15544072
-56.89238114
-37.16305515
-17.76315764
-6.306226554
-3.912077782
-2.702859494
-37.73431184
-74.43788817
-100.7314588
-128.4582668
-145.7603419
-129.1962286
-86.45684221
-39.69183361
-3.001431811
2.93081732
-6.44169994
-6.004197707
7.163536551
19.63617233
5.862130292
-40.8911611
-131.8033209
-183.8412509
-105.5096844
-45.67828138
-1.019943909
15.48350873
10.38411632
-6.41405013
-7.744709044
-0.01202447595
0.04089223926
-1.163973762
-0.3945888431
-1.341053631
-1.833117648
-0.7266969192
-2.151640918
-2.382213857
-3.02170738
-1.521801149
-3.10569446
-3.753449084
-4.081255834
-3.745968269
-2.973902248
-4.815036864
-5.648176579
-6.086614573
-5.406500062
-4.211386738
-7.134917064
-7.310055264
-8.83061216
-9.060129917
-8.247633691
-6.577342175
-3.88771401
-11.50259092
-12.03781513
-13.36441351
-13.93613123
-12.7315865
-10.24625821
-7.016518314
-2.168737531
-17.95428158
-18.60709833
-20.45596725
-21.53876535
-20.32395271
-16.47719456
-11.46152966
-6.035963258
-2.095347339
-24.23009385
-26.52364885
-30.72121849
-33.42077241
-32.48432469
-27.03945029
-19.13207159
-11.14008515
-5.580878665
-1.609560142
-31.06153603
-38.02554797
-46.74584811
-55.02702282
-55.83430472
-47.95880367
-33.8970243
-19.18357088
-9.267923243
-4.602631098
-1.651389371
-27.6478228
-41.85894602
-57.14138242
-76.14573875
-91.83101839
-83.80292048
-60.74962314
-33.15175326
-12.69566601
-3.864125646
-3.481544387
-2.389186339
-31.64306789
-70.3351771
-100.2819966
-136.2312826
-167.4630963
-179.2588885
-141.0962644
-79.25504315
-25.40339101
6.174862231
0.359787038
-6.583569241
-5.382738919
-2.047131765
10.04213651
0.6637002586
-26.28398036
-104.15714
-233.7889277
-231.1749715
-98.36631979
-25.15403498
4.285688418
18.97323109
8.315688964
-4.86815462
-6.680147731
0.2941063154
0.3649182749
-0.8052023463
-0.1749338601
-0.9221268353
-1.388782217
-0.4501551643
-1.693653751
-1.801462687
-2.467631677
-1.110049747
-2.457604842
-2.990856039
-3.313679688
-3.125708504
-2.368793568
-3.877897356
-4.518572804
-5.024801959
-4.490131776
-3.6355065
-6.265836298
-6.027421444
-7.127918912
-7.419419057
-6.894687401
-5.640818797
-3.508969796
-10.17920116
-10.26811705
-10.88784446
-11.35896025
-10.55688572
-8.759240517
-6.207287551
-2.005945026
-15.28996893
-15.13534624
-16.54243222
-17.19717631
-16.57373764
-13.81476245
-10.04526574
-5.4681965
-1.892909278
-21.11149248
-21.92062737
-24.61112943
-26.53115612
-26.14115397
-22.40702309
-16.56894634
-10.16452588
-5.389910306
-1.555094431
-26.49188281
-29.04399605
-34.53869767
-40.47620929
-41.75294471
-37.2244596
-27.80928228
-17.37433176
-9.492035692
-4.494742569
-1.289550784
-31.28476471
-39.33036058
-49.43916693
-61.55028604
-72.12561463
-66.64636476
-50.45981954
-30.67013377
-15.17709969
-6.783739529
-3.628732746
-1.289658871
-25.33521824
-40.39755424
-56.7680252
-76.62478382
-103.5012537
-117.7177069
-91.04816186
-55.3915503
-25.10858172
-7.096751023
-2.174290763
-2.805933003
-1.938879385
-18.28389941
-54.03285093
-88.89002639
-129.4521627
-170.7848364
-201.3079411
-196.4245944
-130.5804684
-59.3870831
-6.667077795
9.919402966
-1.032009665
-5.724723605
-3.982313642
-4.344410926
-3.270220547
2.645328212
-21.37567819
-60.77952953
-181.8460598
-307.5357863
-198.9147463
-58.35651378
-8.677206875
13.01135518
15.83988174
6.611454451
-5.993425281
-3.13427402
0.7401937296
0.6699176107
-0.3388835343
0.1564506877
-0.4395326237
-0.9068245315
-0.1497112456
-1.210199235
-1.229078505
-1.92198009
-0.8528538893
-1.869909395
-2.296079873
-2.599576402
-2.532753664
-1.878863978
-3.09508353
-3.536290569
-4.079539577
-3.644138682
-3.056098546
-5.027269413
-4.929736083
-5.707942217
-6.026183019
-5.692633152
-4.738453845
-3.00517232
-8.549631821
-8.302633888
-8.797797323
-9.22328866
-8.685686333
-7.387489428
-5.299621094
-1.74686842
-12.77907084
-12.43177176
-13.47893396
-13.87087858
-13.59766349
-11.53080989
-8.595778969
-4.830402816
-1.632005015
-17.60815987
-17.56412276
-19.51981012
-20.95988425
-20.96592675
-18.3593969
-13.97940661
-8.889358801
-4.812587016
-1.373177846
-22.9684196
-23.79794126
-27.39310292
-31.77651305
-33.01182329
-30.00909904
-23.20898381
-15.19621815
-8.810387426
-4.375125025
-1.229331197
-26.95013439
-30.1192054
-35.8228644
-44.45051919
-53.5436332
-50.26758454
-39.31881212
-25.47790623
-14.55268677
-7.306643579
-3.50739889
-0.9917965779
-29.00149597
-37.93996908
-49.2452627
-62.15927829
-79.34484596
-90.09455486
-71.21669285
-46.18772301
-24.48984079
-10.70395196
-4.719920598
-2.691922954
-0.9657855338
-21.3944993
-34.95584631
-52.3201382
-72.39571981
-99.94684448
-132.5648053
-130.3322997
-84.78193433
-42.70093427
-15.3125232
-2.526129187
-0.9720626976
-2.07082355
-1.42059204
-18.58263473
-28.79466267
-63.28526506
-110.1322059
-155.3696728
-200.7352063
-220.4167746
-182.7177986
-99.90693721
-33.56384043
9.05278992
9.42446899
-1.026565596
-4.050634888
-1.447990515
8.329453221
-9.310641707
0.2994464283
-10.23249237
-41.38147006
-100.6931415
-238.4055174
-270.5248311
-112.0164475
-22.24714751
2.539922557
16.20645883
11.74172426
1.904790668
-3.534921164
1.492422253
1.408579743
0.2443837164
0.6751442341
0.1479676614
-0.3466974526
0.2713288517
-0.6333512586
-0.6238309303
-1.356845591
-0.4844095985
-1.256767925
-1.617747116
-1.911469407
-1.959156907
-1.799860941
-2.408272113
-2.657414781
-3.221047159
-2.8623444
-2.49488266
-3.842515632
-3.999718596
-4.504841094
-4.823674746
-4.62166622
-3.902316698
-2.495111986
-6.836375171
-6.616960736
-7.064840907
-7.466656201
-7.094430107
-6.164677891
-4.425228147
-1.472187711
-10.34040484
-9.994677398
-10.83993222
-11.17387835
-11.15838691
-9.571314751
-7.254314152
-4.151453928
-1.351709327
-14.46203019
-14.07860421
-15.70814906
-16.80276162
-17.07083181
-15.1529769
-11.72153751
-7.618690928
-4.186189939
-1.169492733
-19.04761535
-18.85373697
-21.38325531
-24.90941772
-26.23456321
-24.25104444
-19.19961147
-12.93318873
-7.71128143
-3.946880167
-1.078204359
-23.50340115
-24.70911038
-28.12709406
-34.46538802
-42.31653966
-40.21276477
-31.97600066
-21.3921621
-12.92068026
-6.992860314
-3.451980472
-0.9239171605
-25.83843028
-29.73653242
-35.80516708
-43.9139785
-58.15616881
-69.05376345
-54.50278132
-36.15117512
-21.11986007
-11.27749738
-5.369223582
-2.542445815
-0.7485858796
-25.42882929
-33.86680132
-46.12934111
-60.01955749
-77.47120598
-97.81253275
-99.65528277
-66.58839383
-36.68354943
-17.02652065
-6.697712184
-2.984732371
-1.847381077
-0.6506010231
-18.04471474
-28.52837193
-43.41407928
-64.33788215
-90.3928735
-123.8295848
-149.9736536
-118.3342747
-64.79795502
-28.39331686
-6.36533975
0.3600007911
-0.2190053825
-1.473775803
-0.8100849349
-17.15560232
-27.65547778
-30.98994206
-79.02819212
-130.6110845
-177.1579821
-212.663548
-206.6442115
-138.8285281
-64.76656666
-6.017451278
16.68162792
7.955606956
-0.7233422169
-0.6177228434
24.32533235
10.44215793
-3.425960644
-4.020591511
-24.3867803
-63.39897049
-131.1312247
-222.4858432
-154.0532381
-41.71302782
-11.39355926
12.54507547
14.15225651
4.639182815
-1.043196521
2.421104281
2.016262278
0.974211109
1.391967178
0.8656411297
0.2991802212
1.01629043
0.05852547898
0.0510626296
-0.7430053314
0.05112363628
-0.5212861101
-0.8980737718
-1.213132493
-1.38325683
-1.070215817
-1.656275131
-1.808513113
-2.404967758
-2.123734062
-1.954103949
-2.832226763
-3.049988911
-3.428938206
-3.756462303
-3.653103634
-3.131246975
-2.002145312
-5.189955536
-5.079579542
-5.592449319
-5.988139718
-5.71784925
-5.080491403
-3.629044875
-1.206585046
-8.089616991
-7.855322251
-8.667933319
-8.984955997
-9.156561836
-7.913752389
-6.04821999
-3.513250885
-1.083688811
-11.52857366
-11.04910273
-12.5772672
-13.4621368
-13.98961373
-12.54198422
-9.779430997
-6.442710311
-3.552834415
-0.9473693847
-15.56980397
-14.89950087
-16.89404969
-19.90149087
-21.33159581
-19.93061925
-16.02812161
-10.93723603
-6.578110225
-3.449169339
-0.9225182759
-19.62818941
-19.56415313
-21.65078107
-26.64052755
-33.90354601
-32.64649566
-26.2295883
-17.78770416
-11.04692509
-6.196258418
-3.144330707
-0.8243194169
-22.98390403
-24.66740096
-28.13411769
-33.62124754
-45.46931357
-56.25964991
-44.60261325
-29.56927322
-17.94464316
-10.36783381
-5.333343076
-2.573151526
-0.6752300225
-24.10576474
-27.80808772
-34.55911682
-42.50224614
-55.45520784
-74.18916241
-78.24101096
-51.07113797
-29.01912082
-15.96761507
-8.065151798
-3.624293749
-1.748580435
-0.5278823821
-21.81980827
-29.27625099
-40.04010259
-54.98339681
-72.75309415
-92.39354847
-109.4635521
-89.71795864
-51.80397199
-26.18499748
-10.25031468
-3.555742513
-1.673069863
-1.161244427
-0.3409783916
-13.64773927
-23.66041254
-35.27816475
-53.25649153
-79.15069951
-107.0626617
-134.1637766
-136.276001
-87.62242353
-43.61190697
-14.78527945
0.06078107536
1.65418575
-0.02047031468
-0.5916722861
-7.762965675
-25.99858519
-25.95997998
-44.22976282
-101.5527347
-149.2217744
-186.5600529
-197.6230254
-159.9724917
-93.06076237
-29.8757076
14.73885725
16.75618583
5.911488532
1.594713456
26.82757607
35.04035507
8.039254401
-8.083758767
-14.14924648
-43.07889104
-77.56621205
-123.7775786
-134.3537912
-63.81911431
-25.44342169
2.135645848
14.66457769
5.178051361
-0.7626125306
3.527702949
3.206260447
1.893166521
2.185994049
1.658089913
1.039352131
1.865423651
0.8600374208
0.8008451408
-0.07012871353
0.949551819
0.343473119
-0.1116550758
-0.4783131247
-0.7792379382
-0.1016060275
-0.7571379472
-0.9146169435
-1.583249455
-1.399031256
-1.423105347
-1.650119229
-1.952099328
-2.376786457
-2.759458507
-2.749198089
-2.411634435
-1.537855892
-3.616117566
-3.687558781
-4.228874561
-4.693075568
-4.495995272
-4.109980858
-2.90403357
-0.9556169746
-6.007611006
-5.911102845
-6.791014089
-7.154415853
-7.464259419
-6.493807517
-4.978839803
-2.934924212
-0.8391403855
-8.884074629
-8.439868256
-10.03380108
-10.75063708
-11.52115017
-10.41353474
-8.130346157
-5.400786507
-2.971716048
-0.7383500878
-12.3486019
-11.46677284
-13.23202362
-15.9080747
-17.55251657
-16.52291377
-13.45147939
-9.222578855
-5.511433127
-2.926482719
-0.7503982046
-16.1221304
-15.40790054
-16.83187397
-20.97776356
-27.87156329
-27.17631306
-21.96590257
-14.90997531
-9.29945238
-5.300391278
-2.774507625
-0.7143239069
-19.54478699
-19.73595251
-21.5862318
-25.40006005
-36.03430904
-47.18912717
-37.38394696
-24.44828392
-14.96270107
-9.031343781
-4.827187917
-2.379104897
-0.6200474758
-22.07185426
-23.63143264
-27.56830442
-32.63252111
-42.94498232
-59.74441029
-65.70523825
-41.90128177
-23.68723374
-13.92306314
-7.815561112
-3.797814862
-1.805931338
-0.4731807109
-21.80913185
-25.94515168
-31.52893302
-39.90005909
-51.93414278
-67.86268491
-85.71464533
-70.053906
-39.41257905
-21.82712537
-11.21846171
-5.266910747
-2.258485234
-1.171507531
-0.3075187888
-18.58713634
-24.82279332
-34.76627444
-47.51376883
-66.42742881
-83.74128966
-97.71575546
-99.55610941
-66.46061034
-36.41242387
-16.2849246
-4.822087734
-1.422308815
-0.8387938619
-0.4161769167
-9.558163594
-18.23451888
-28.34704553
-44.43274981
-68.55578371
-91.81225653
-112.7413582
-123.0188169
-100.2003059
-58.52760185
-25.79871815
-3.496356752
3.149858499
1.564407928
0.2146799055
-8.304922873
-8.736190947
-25.58170695
-30.9210147
-69.38311828
-124.1608497
-157.0400869
-172.9015908
-158.6116703
-112.3863612
-54.6971819
3.335191898
22.82358192
12.64698312
5.497969533
16.52814569
51.16472039
29.61512209
-11.12933128
-13.39242855
-29.83158381
-58.3250203
-66.06006876
-75.54942512
-64.56646897
-39.22820491
-17.00431476
12.97465025
5.134481809
-0.3628110574
4.649080224
4.378562027
2.899080747
3.217594423
2.683273093
1.901449162
2.826477408
1.770139711
1.624653943
0.6686167656
2.000791157
1.279696346
0.7353855203
0.3003536907
-0.1377638665
1.06936073
0.2868564368
0.04139293772
-0.7264871717
-0.6648412511
-0.8779321366
-0.3243812961
-0.7724375401
-1.27844076
-1.772029714
-1.871341961
-1.723510914
-1.114113119
-2.017955198
-2.279590729
-2.879603796
-3.494585125
-3.369616484
-3.221564739
-2.243936999
-0.7220534891
-4.044147069
-4.117325368
-5.090190608
-5.552454325
-5.978962849
-5.254043293
-4.025042206
-2.413912865
-0.6181390795
-6.468493699
-6.113246403
-7.764587979
-8.492973513
-9.462679215
-8.634782597
-6.712968717
-4.488495941
-2.45174487
-0.5484389641
-9.46146132
-8.520454884
-10.22121052
-12.63134519
-14.58521261
-13.79025859
-11.35287966
-7.779975859
-4.560648154
-2.438072517
-0.5879122591
-12.7881603
-11.77199294
-12.88225602
-16.50490213
-23.23283034
-22.93678719
-18.63734618
-12.5764806
-7.759652601
-4.418634631
-2.365911501
-0.590245218
-16.28669408
-15.62662081
-16.65493291
-19.49476622
-29.28802582
-40.75777159
-32.32843726
-20.69542631
-12.46573873
-7.651773226
-4.177340642
-2.128681445
-0.5498901858
-19.20534823
-19.33508514
-21.40459
-24.52588562
-33.07410162
-49.67972924
-57.42801669
-35.38733784
-19.32466085
-11.72404417
-6.997585745
-3.529121687
-1.708461341
-0.4422498503
-20.60094891
-22.78230074
-25.82398249
-31.04398397
-40.3717133
-53.63498128
-71.26530374
-58.86853093
-31.75788228
-18.16944912
-10.31766688
-5.495417815
-2.52179291
-1.22533634
-0.2884766749
-19.15132873
-23.4115984
-29.91555944
-36.32844625
-48.64691599
-60.45285947
-73.0034819
-77.89734969
-50.23781485
-27.90678277
-15.36784114
-7.066906342
-3.087444526
-1.354965391
-0.5783189532
-15.45715606
-21.36961065
-29.21254662
-41.88445714
-60.0710172
-75.75065711
-86.51699201
-89.14061213
-74.20684665
-46.15180502
-23.45370336
-7.908688194
-1.346980744
-0.2674284376
-0.05867922369
-7.750827469
-12.29976377
-21.7102753
-35.45474319
-59.43564657
-80.9428908
-94.46179539
-102.5032403
-95.41044751
-68.77309944
-37.20573596
-9.965384849
3.053634862
3.121931889
0.9985947631
-20.50049833
-5.690299352
-8.573704538
-28.85337794
-47.08561358
-96.3745326
-133.3746213
-145.5036366
-143.5522937
-117.3550021
-73.98029591
-14.48565397
24.4435585
18.81723022
8.592255285
-17.04102854
54.59238697
53.92580168
7.277714133
-35.80708525
-10.77713007
-35.14644465
-46.58169075
-35.42711656
-40.47472714
-43.37607584
-34.30109893
9.181790282
5.30389199
0.721402605
5.487484984
5.486821825
3.864906704
4.517467532
3.725155595
2.807182432
3.953434115
2.821976257
2.568696465
1.476109065
3.149858867
2.32914042
1.656009395
1.13032395
0.5408903382
2.364584305
1.40842914
1.035217056
0.1673197466
0.08448659784
-0.3014543189
1.111592817
0.5148528656
-0.1203585461
-0.7584602304
-0.9923629435
-1.043234866
-0.7220325531
-0.373518302
-0.8235074694
-1.511602745
-2.325174445
-2.288279722
-2.383083978
-1.639375335
-0.531283572
-2.127219196
-2.379477001
-3.44867589
-4.081822102
-4.614682057
-4.140656948
-3.16245787
-1.946175399
-0.4207694783
-4.22131907
-3.979108099
-5.720314832
-6.530774556
-7.667100909
-7.107023848
-5.472848572
-3.688066625
-1.990762881
-0.3786078095
-6.820951683
-5.911354527
-7.597889293
-9.960307945
-12.15957449
-11.51376366
-9.598089119
-6.558562277
-3.726136973
-1.995829399
-0.4406838775
-9.792790193
-8.630780901
-9.634385209
-12.88032238
-19.57372412
-19.54759737
-15.99169372
-10.6924289
-6.440315072
-3.615155003
-1.974717065
-0.4688666242
-13.07605006
-11.93674437
-12.59877952
-14.80372568
-24.07757178
-35.84648349
-28.55570744
-17.8346529
-10.38663837
-6.378963046
-3.497513935
-1.828612754
-0.468039404
-16.25127352
-15.5761446
-16.60727926
-18.61200433
-26.16104193
-42.55949005
-51.93433952
-30.93315978
-15.99166757
-9.707002524
-6.002445025
-3.104933371
-1.560880315
-0.3998020739
-18.40501904
-19.1909734
-20.54896861
-23.51476221
-30.91241666
-43.13372595
-61.93222987
-51.72810995
-26.08586592
-14.89256976
-8.943483586
-5.099207156
-2.421053618
-1.183474211
-0.2812617138
-18.70390405
-21.31408925
-25.45878835
-28.8883136
-38.22249018
-47.45388517
-58.19961523
-64.89565991
-40.47317116
-22.26837786
-13.39499652
-7.058721984
-3.541706714
-1.57729679
-0.6395042309
-16.51426419
-20.55076042
-26.84020091
-34.98499944
-46.10928142
-55.75345316
-62.84305851
-66.2517789
-55.34747527
-33.95810837
-19.53663507
-9.664861916
-3.945579507
-1.606875161
-0.5145371536
-11.39141569
-18.23170541
-24.91872225
-35.03298038
-54.22779828
-70.3376417
-76.6557725
-77.66509146
-70.69058795
-53.12222039
-30.77535375
-12.17386539
-2.303774579
0.2667422685
0.255193536
-9.237500725
-8.923464872
-15.36217315
-26.92792937
-47.14190299
-73.35572993
-81.78442781
-86.01226608
-83.88643349
-69.83310116
-46.02614302
-18.06336363
1.26332477
4.252126762
1.710818888
-21.26830977
-17.41789347
-6.919674722
-18.13036944
-41.96953786
-65.34551353
-108.5180846
-122.0392292
-121.8346624
-111.3159475
-83.10136871
-32.81083194
20.1569348
25.88615885
9.441162063
-32.8978593
13.43874161
56.80089777
42.37984066
-27.25241986
-40.216228
1.452407989
-29.52532553
-23.94588805
-19.32292992
-32.46765184
-44.37988732
-4.928450051
9.836299615
4.786307265
6.902740668
6.451262227
4.863804998
5.637505036
4.736907684
3.683833976
5.213051582
3.965925223
3.541927289
2.305728385
4.435187132
3.482755639
2.667305566
2.019519423
1.253304377
3.743341773
2.630344175
2.085081877
1.105658979
0.8503804429
0.2988731713
2.633830431
1.88768615
1.067822344
0.2828416895
-0.1087153633
-0.3559488965
-0.2651356168
1.329697844
0.6974888675
-0.1009280201
-1.141684476
-1.217004312
-1.565251724
-1.059357675
-0.4279684793
-0.2146327761
-0.647869632
-1.809771996
-2.674451277
-3.306020621
-3.10820024
-2.363521858
-1.527186789
-0.2566441307
-2.067734432
-1.941952877
-3.791671104
-4.742214694
-6.020887673
-5.750701889
-4.359701509
-2.979781716
-1.584363386
-0.2265905195
-4.365693948
-3.536759234
-5.238094079
-7.635349268
-10.09012363
-9.547087997
-8.087353225
-5.51009649
-2.995382347
-1.600509309
-0.3113170565
-7.03265809
-5.823423132
-6.817341727
-9.836866365
-16.5941374
-16.69498278
-13.80189166
-9.143850464
-5.31134996
-2.900789116
-1.616624206
-0.3561129184
-10.13638504
-8.703563921
-9.234004398
-11.00591538
-19.91869795
-31.9134424
-25.67338391
-15.64327195
-8.671280438
-5.255090569
-2.8581439
-1.529887021
-0.3841076468
-13.25485637
-12.07893866
-12.55831403
-13.84328442
-20.74241168
-37.21364117
-48.08447259
-27.71899202
-13.36511284
-7.949961928
-5.020803206
-2.616518724
-1.363258507
-0.3486583691
-15.87023659
-15.77441418
-16.22255308
-17.81294059
-24.20090839
-35.91187762
-55.49597788
-47.29067665
-22.03704845
-12.20997888
-7.483173029
-4.450142156
-2.188930011
-1.099373089
-0.2705504832
-17.08490196
-18.53448702
-21.06921996
-22.28410676
-29.58524273
-37.42852971
-48.29247715
-56.90325699
-33.84411508
-17.70567527
-11.27799597
-6.368121562
-3.440148522
-1.552909912
-0.6543467185
-16.79654949
-19.39595634
-23.79837373
-28.99980362
-37.09346461
-44.30978405
-49.37527497
-52.57275103
-44.15952416
-26.52766606
-16.10828238
-9.098966978
-4.444449149
-2.030635107
-0.6625922274
-13.78149947
-18.10612414
-23.29846513
-31.3171034
-44.89584684
-54.19007894
-56.14818318
-55.53499544
-50.57036769
-38.42013867
-23.83567426
-12.42538118
-5.378118569
-1.899953902
-0.4640236554
-8.876485659
-15.55921779
-21.42862687
-28.53733052
-44.89114457
-66.89945624
-70.3489739
-68.85741197
-64.53097051
-53.77699782
-36.37025168
-16.97570794
-4.033020341
0.2852087559
0.4973639435
-11.44101899
-10.66147415
-11.76660106
-20.85911331
-35.19462999
-57.32902871
-73.26103868
-72.25591064
-72.00339727
-65.49612597
-49.70179392
-25.62382509
-2.259062582
4.893899296
2.135183178
-20.81644202
-15.63024864
-8.680440319
-16.35072367
-37.13427879
-55.18327455
-73.97253749
-100.1862776
-101.2405655
-97.56705653
-82.82901533
-45.49575323
12.27893578
31.73992306
15.67161855
-21.55063367
-23.26714439
-11.07252346
38.89989475
6.078968631
-49.81749081
-22.68763103
-6.059641023
-23.05483789
-12.18249066
-22.59454878
-46.6676397
-20.76867422
8.547945152
10.79184014
8.34079095
7.676175652
6.132221806
6.631953919
5.723915955
4.583147854
6.36623496
5.028312673
4.47533513
3.09548366
5.822597277
4.704464494
3.730736541
2.925765964
1.973461647
5.228064072
3.950699844
3.196583503
2.096918486
1.633432638
0.9163022969
4.223214607
3.335619124
2.286817413
1.359063215
0.7756223778
0.3332482895
0.225497025
3.096298738
2.29733569
1.339968852
0.06507639111
-0.1469853552
-0.751941525
-0.4678377228
-0.1126825366
1.730862646
1.124914379
-0.1421970269
-1.27805644
-2.005502167
-2.120655829
-1.593374498
-1.09897951
-0.1302098002
0.05466338317
0.0618848532
-1.90648395
-3.055901429
-4.44082671
-4.506958895
-3.32886529
-2.338007379
-1.231567986
-0.08946964627
-2.020106764
-1.286664162
-3.025787343
-5.515759739
-8.228035526
-7.786311003
-6.73597681
-4.589132212
-2.352740162
-1.246462435
-0.1985815638
-4.454374558
-3.255782278
-4.271048509
-7.165087724
-14.06929864
-14.18071816
-11.91321694
-7.844688711
-4.336986601
-2.270039555
-1.297260722
-0.2548732462
-7.379004307
-5.767480384
-6.30340178
-7.782627401
-16.47746899
-28.55807239
-23.36558786
-13.92364475
-7.239114144
-4.273683285
-2.280784371
-1.248550771
-0.3036256593
-10.39701204
-8.967211562
-9.089405835
-9.941560257
-16.4037316
-32.9786426
-45.34826945
-25.37237275
-11.28428467
-6.450826534
-4.122684539
-2.134492813
-1.155508077
-0.2937751763
-13.18059224
-12.49392983
-12.40368995
-13.11305528
-18.81612191
-30.50997135
-50.97149542
-44.48589594
-19.00421842
-10.0072731
-6.135471287
-3.742279653
-1.880307472
-0.9806704945
-0.2512521077
-14.97847988
-15.61013816
-17.1220757
-17.02608095
-23.12252376
-30.4588887
-41.77298711
-51.8627515
-29.32647555
-14.23581895
-9.310410101
-5.407578741
-3.098246155
-1.434360833
-0.642669856
-15.71641254
-17.23952972
-20.36890197
-23.53697151
-29.31705395
-35.33488167
-39.61458272
-43.58159207
-36.70576125
-20.91025656
-13.0149973
-7.957790197
-4.240258765
-2.087138975
-0.6890022671
-14.79401711
-17.62116882
-21.42299744
-27.02255276
-37.50844837
-44.59518293
-44.79756954
-42.89667779
-38.78540398
-29.76993549
-19.03403706
-10.95761202
-5.732411153
-2.426835407
-0.6333163074
-11.84510103
-16.01973244
-20.62071519
-26.04890918
-39.56434029
-55.3991157
-53.45540249
-49.41457198
-45.0834985
-37.90128227
-27.03169209
-15.24004132
-6.939717392
-2.57554009
-0.5341763863
-8.02122079
-14.5970276
-18.92112475
-24.51955613
-33.70868564
-53.74979198
-67.17672763
-60.88888447
-57.56882228
-51.50896586
-38.70011663
-21.35773885
-6.497926012
-0.05406526729
0.5072228055
-13.07669747
-14.62077649
-12.81999235
-16.55119686
-29.1321933
-42.09300872
-55.49791521
-61.02143275
-60.42041281
-58.40284544
-48.74495361
-30.38205243
-6.553568318
4.58433501
2.805916511
-24.71957853
-28.59489255
-2.684874504
-8.289760961
-33.95964774
-50.71256489
-59.71061309
-73.7657522
-83.7021912
-82.50307321
-76.04782561
-51.25143489
4.251240892
34.28915266
25.22744885
-4.478483331
-40.05856182
-45.82899617
-43.39195664
-11.28727475
-37.44108575
-52.80898996
-17.50253147
-20.13264215
-11.03854061
-20.58778419
-47.80434187
-30.64454001
7.112534359
13.49199752
9.872025855
9.12950835
7.444745989
7.747579302
6.857378597
5.610570882
7.314913802
6.031268424
5.376024718
3.842457063
7.169608458
5.875247593
4.729949963
3.767728058
2.631800467
6.821134844
5.362075126
4.363718771
3.11331186
2.413624607
1.529920395
5.914367118
4.866826728
3.544996941
2.48190785
1.660170468
1.021824286
0.7196407661
4.915510067
3.967243585
2.792462727
1.298416592
0.9098578132
0.05204463765
0.1176067913
0.2435558611
3.735568974
2.971778063
1.572521169
0.1240441135
-0.6937782318
-1.157880386
-0.8341026288
-0.6347020459
0.02137248436
2.202637263
2.099159506
0.0006164756579
-1.417065928
-2.862804822
-3.334656498
-2.343124029
-1.720273914
-0.9162903345
0.03794997718
0.2853335585
0.917377032
-0.8802471435
-3.527375628
-6.466478832
-6.164045008
-5.47584212
-3.753392578
-1.781535511
-0.9283356108
-0.09884661911
-1.983510265
-0.8136456059
-1.87418319
-4.725618517
-11.82299377
-11.87187043
-10.20872868
-6.720384776
-3.481653294
-1.709805643
-1.013979521
-0.1654536997
-4.772809591
-3.056156672
-3.63257956
-4.961384209
-13.476428
-25.5153161
-21.43980279
-12.54037641
-6.023353452
-3.412176054
-1.768460118
-0.9932478519
-0.2290177749
-7.665651847
-6.082220926
-6.023254398
-6.591508835
-12.75785975
-29.39134118
-43.34040289
-23.60234569
-9.597012337