# Forces          
# CofR            : (-4.1740000000e-02 1.1180000000e-03 -5.5878000000e-02)
# Time            forces(pressure viscous)	moments(pressure viscous)
0                 	((-7.1334714518e+00 1.4674668877e+00 3.4473674622e+01) (7.6470239351e-04 3.5968383508e-05 3.9551711504e-03)) ((2.8478672514e-01 2.2915674198e+01 -9.9008610086e-01) (2.2539569581e-06 2.8326236726e-03 -4.5692074300e-05))
0.01              	((-2.6316144883e+00 1.3380083220e-01 5.3916995825e+00) (7.8989670467e-04 7.3835589857e-06 6.8030067048e-04)) ((2.5001531156e-02 3.5031053356e+00 -8.2920503920e-02) (2.3997185962e-05 4.5890660005e-04 -3.7519125638e-05))
0.02              	((-3.1482253884e+00 2.9096353404e-01 8.8957236760e+00) (-4.0174875234e-03 -7.4866921404e-05 -4.1908343141e-04)) ((4.8584856083e-02 5.7937363529e+00 -1.9191627653e-01) (3.1659305279e-05 -6.7738516977e-04 1.7993402867e-05))
0.03              	((-3.1966069309e+00 3.1119571840e-01 9.2124371062e+00) (-8.7199538719e-03 -8.6427433650e-05 -2.1418036102e-03)) ((4.8195928615e-02 5.9189309722e+00 -2.0264672305e-01) (2.2757926559e-05 -2.2291531568e-03 3.8410164301e-05))
0.04              	((-3.6496900814e+00 2.7316602928e-01 1.2011469837e+01) (-1.5262923411e-02 2.2951605101e-04 -4.0204163866e-03)) ((5.2746590770e-02 7.6387188802e+00 -1.6836499295e-01) (-2.1992800529e-05 -4.0666798165e-03 -1.4206861777e-04))
0.05              	((-4.6121399785e+00 1.0768303848e-01 2.0974543238e+01) (-2.3888845560e-02 4.1994595038e-04 -5.5849491782e-03)) ((4.8226606779e-02 1.3370616895e+01 -6.0328507792e-02) (-3.3730647536e-05 -5.7652018117e-03 -2.4214270392e-04))
0.06              	((-6.1348232580e+00 -4.4135512238e-02 3.2387865724e+01) (-3.5109150946e-02 -7.7537187318e-04 -4.7547113086e-03)) ((4.0347175420e-02 2.0592015646e+01 4.8508119116e-02) (7.1647126170e-05 -6.0400495570e-03 6.7491470576e-04))
0.07              	((-8.1085405996e+00 -2.2125835206e-02 3.8557803378e+01) (-5.3150657437e-02 -1.6986868999e-03 -3.8745562101e-03)) ((7.3515012765e-02 2.4395707137e+01 4.9737225891e-02) (1.3245128900e-04 -7.1026245889e-03 1.5684074382e-03))
0.08              	((-9.9382077613e+00 -1.4458484865e-03 3.6986752363e+01) (-8.4638321202e-02 -1.6321177390e-03 -6.3140565125e-03)) ((1.4751935588e-01 2.3203318856e+01 5.2267277364e-02) (-1.4329107385e-05 -1.1397001948e-02 1.8254321639e-03))
0.09              	((-1.0685681610e+01 -1.0998845983e-02 3.5912430858e+01) (-1.2573660210e-01 -3.0633962703e-04 -1.5384821071e-02)) ((2.1918095027e-01 2.2253597305e+01 8.9533611189e-02) (-3.9750346603e-04 -2.0453725252e-02 9.1811174259e-04))
0.1               	((-1.0158412379e+01 6.9799058039e-02 4.2595296413e+01) (-1.6026605130e-01 1.1523792025e-03 -1.8133529873e-02)) ((1.5480873157e-01 2.6540432778e+01 1.2832746040e-02) (-4.3663742941e-04 -2.5070765829e-02 -4.8762609384e-04))
0.11              	((-9.5355199300e+00 1.7462951978e-01 4.8349017593e+01) (-1.5635912668e-01 2.2092989185e-04 -6.5683315261e-03)) ((8.1271290794e-02 3.0186208064e+01 -9.1170435362e-02) (-9.0022054569e-05 -1.7324617193e-02 4.1657913650e-04))
0.12              	((-8.3262223670e+00 2.2683895275e-01 4.4180023576e+01) (-1.4544792399e-01 -3.1194917117e-04 -5.5084305852e-03)) ((5.3706815249e-02 2.7298820604e+01 -1.2739071780e-01) (5.8642483104e-05 -1.5825068811e-02 8.3953441297e-04))
0.13              	((-8.7214372682e+00 2.0733883954e-01 4.8854312982e+01) (-1.4984506794e-01 -2.1544017508e-04 -6.6601668685e-03)) ((5.7202461541e-02 3.0168188807e+01 -1.0597106833e-01) (-7.6859886106e-05 -1.7207803647e-02 9.7598788871e-04))
0.14              	((-1.0267107265e+01 1.0709746287e-01 5.7865387976e+01) (-1.7533619069e-01 -1.7209571195e-04 -9.4022710705e-03)) ((7.7556115578e-02 3.5674089852e+01 -1.6149515982e-02) (-2.3516595480e-06 -2.0557158686e-02 8.9688392842e-04))
0.15              	((-1.1737758613e+01 1.2350437185e-02 6.3317153598e+01) (-2.0061690913e-01 -1.7958963734e-04 -2.7260032222e-02)) ((-6.5206865448e-02 3.8834070392e+01 5.7527797128e-02) (7.3350662979e-05 -3.3532402876e-02 8.9577305676e-04))
0.16              	((-1.3650141934e+01 -1.4568314553e-01 6.8257967326e+01) (-2.1145470942e-01 -7.2298800972e-04 -2.8374616015e-02)) ((5.1887928805e-02 4.1872681586e+01 1.7160358174e-01) (1.5328823190e-04 -3.4447519256e-02 1.4223193377e-03))
0.17              	((-1.4821005555e+01 -1.2676041970e-01 7.4046786279e+01) (-2.2703621301e-01 -8.0586339754e-04 -3.0882249898e-02)) ((-6.1747544790e-02 4.5219143007e+01 1.6412701680e-01) (-4.6582467528e-05 -3.7505723791e-02 1.5277373588e-03))
0.18              	((-1.5893897444e+01 -1.4589626364e-01 8.1065551738e+01) (-2.3531406867e-01 -9.4338435375e-04 -3.0337925773e-02)) ((7.5227355850e-03 4.9635715958e+01 1.7154660300e-01) (8.1100417482e-05 -3.7569633932e-02 1.7050013149e-03))
0.19              	((-1.6929844023e+01 -9.1221123491e-02 8.2316569785e+01) (-2.4602673157e-01 2.6486049918e-05 -3.3091124996e-02)) ((-1.0006229775e-01 5.0175858649e+01 1.4859776914e-01) (1.4840178767e-04 -4.0242512718e-02 1.0487146534e-03))
0.2               	((-1.7883972334e+01 -2.4676875306e-01 8.8670867181e+01) (-2.5341128673e-01 5.2943806031e-04 -3.2984136838e-02)) ((-9.5760101750e-02 5.4282485410e+01 2.4676575596e-01) (-1.3820682432e-04 -4.0682548691e-02 1.2637045638e-03))
0.21              	((-1.8713888374e+01 -1.6760633620e-01 8.9014876369e+01) (-2.5947875416e-01 1.3467487859e-03 -3.3933172967e-02)) ((-1.0121945326e-01 5.4181906734e+01 2.0960674333e-01) (1.6794414277e-04 -4.1719818112e-02 4.7452054275e-04))
0.22              	((-1.9215640361e+01 -2.9662097913e-01 9.5821646086e+01) (-2.6929406024e-01 1.1801677318e-03 -3.4758364140e-02)) ((-1.2739476030e-01 5.8699314019e+01 2.8467883840e-01) (-4.4026022702e-04 -4.3046243639e-02 1.5540648333e-03))
0.23              	((-1.9946193041e+01 -1.7489961454e-01 9.3106363590e+01) (-2.7364784023e-01 1.5123863583e-03 -3.6459966921e-02)) ((-1.0313927090e-01 5.6519546692e+01 2.4659558141e-01) (2.5291942133e-04 -4.4497727148e-02 7.5279206453e-04))
0.24              	((-2.0517288204e+01 -3.6122707519e-01 1.0250444080e+02) (-2.8120874906e-01 1.3485480533e-03 -3.4381871041e-02)) ((-6.6591716569e-02 6.2942401844e+01 3.3491328257e-01) (-6.4113979927e-04 -4.3595815026e-02 1.7856507052e-03))
0.25              	((-2.0791291797e+01 -1.3268143702e-01 9.4121940957e+01) (-2.8839077750e-01 1.2728042903e-03 -4.4103589812e-02)) ((-1.6781703285e-01 5.6844948577e+01 2.3368637000e-01) (2.3326933842e-04 -5.1183741208e-02 1.0714576282e-03))
0.26              	((-2.2102102722e+01 -3.3355538068e-01 1.1006004889e+02) (-2.8577528046e-01 1.4056100096e-03 -2.7481882923e-02)) ((-6.3256845360e-02 6.7873952797e+01 3.2294363444e-01) (-5.3417421862e-04 -3.8794516003e-02 1.7236507249e-03))
0.27              	((-2.1566316278e+01 -1.3362520176e-01 9.4083535535e+01) (-3.0803658930e-01 1.0520270948e-03 -5.8206909516e-02)) ((-2.3878810148e-01 5.6557767064e+01 2.3851670125e-01) (2.9389842480e-04 -6.3039423043e-02 1.0097231941e-03))
0.28              	((-2.3919800325e+01 -3.8388445151e-01 1.1544709131e+02) (-2.8216249816e-01 3.5996588502e-04 -1.5138405413e-02)) ((-6.6914191351e-02 7.1354841321e+01 3.3730068069e-01) (-5.4275371235e-04 -2.9227100046e-02 2.4705125290e-03))
0.29              	((-2.2118875287e+01 -1.3295037131e-01 9.7275694062e+01) (-3.2480032061e-01 -2.9291949676e-04 -6.7727752878e-02)) ((-3.1605541710e-01 5.8683183223e+01 2.2633971596e-01) (3.9954078423e-04 -7.1238203098e-02 1.7695443327e-03))
0.3               	((-2.4743590308e+01 -4.0266927064e-01 1.1307665422e+02) (-2.8453043102e-01 -1.3839696187e-03 -1.1649384158e-02)) ((-2.0921523727e-02 6.9523124511e+01 3.4551895903e-01) (-2.5451270238e-04 -2.6559766062e-02 3.7772868524e-03))
