/*--------------------------------*- C++ -*----------------------------------*\
  =========                 |
  \\      /  F ield         | OpenFOAM: The Open Source CFD Toolbox
   \\    /   O peration     | Website:  https://openfoam.org
    \\  /    A nd           | Version:  13
     \\/     M anipulation  |
\*---------------------------------------------------------------------------*/
FoamFile
{
    format      ascii;
    class       volScalarField;
    location    "0";
    object      magU;
}
// * * * * * * * * * * * * * * * * * * * * * * * * * * * * * * * * * * * * * //

dimensions      [0 1 -1 0 0 0 0];

internalField   nonuniform List<scalar> 
270627
(
76.1505759
50.14832336
64.42659448
79.68785228
35.61040257
50.2952163
53.78408354
57.24516307
65.63938723
82.05031911
25.38850869
38.3691797
39.20057083
48.33490066
51.54694628
56.2397066
52.36736174
57.62318667
67.11306601
83.66362014
17.44947499
28.87406076
28.87619107
39.11527151
39.59656676
41.66994408
46.0036639
48.7207463
53.09569108
57.91811466
48.82730458
52.44003721
58.38387609
68.36732547
84.70444203
11.0950521
21.18079333
20.75825658
30.75890831
30.02786415
31.34393283
38.84544239
39.48012442
41.16734132
43.36422854
43.8814507
46.07120446
49.52255902
54.41893435
59.00291099
46.16404565
48.78044824
52.7672422
59.20947976
69.24283958
84.84238059
6.377999525
14.88186383
14.04587012
23.52132746
22.20282334
23.21801924
31.70594895
31.07294129
31.58889718
33.0483935
38.16243445
38.89339566
40.29382021
42.52227759
44.46661436
42.10643112
43.82465226
46.41313284
50.39824818
55.34448169
59.15232154
44.12926536
46.06548419
48.86950275
53.22658847
59.85204205
69.34481926
84.68835498
4.724320433
9.893485308
8.392279654
17.3773879
15.66987707
16.48745785
25.07985461
23.7472717
23.72850408
24.93506388
32.10874375
31.71644559
31.87211734
32.95749547
34.17110136
37.38517108
38.08738485
39.23493134
41.19721795
43.47793797
44.63307335
40.67739753
41.99629426
43.91269515
46.89817351
51.08057016
55.4555932
58.99739562
42.5722695
44.00546686
46.02830722
49.06517816
53.62515601
59.89651204
69.19361714
84.52024355
6.647087286
6.619515409
3.749004201
12.33143109
10.21980354
10.78508524
19.19772844
17.45692127
17.1234234
18.22124388
26.15248934
25.02931574
24.50413885
25.1022099
26.08789586
32.21785617
32.00413902
32.03990189
32.78581229
33.9381533
34.36722866
36.66362707
37.25794373
38.16613501
39.73397467
41.90844576
43.60541111
44.4898341
39.55630243
40.541533
41.94973359
44.11388247
47.31780531
51.12670197
55.29903148
58.82634621
41.27889921
42.43426627
43.90188134
46.05375026
49.25134098
53.60310013
59.74490941
69.03425799
84.23141933
9.396398288
5.951921663
1.912100911
8.588705723
5.937602858
5.941807436
14.19311993
12.15721627
11.51918448
12.53858162
20.61512535
19.05107014
18.13173919
18.49447044
19.41703077
26.9070167
26.00287144
25.31289278
25.4137387
26.1115865
26.33076607
32.19148863
32.06586087
32.06228888
32.54039853
33.5206753
34.09381833
34.24703086
36.05790009
36.51157688
37.19665947
38.36678055
40.17056848
41.96488463
43.45610625
44.32654445
38.63507346
39.40611382
40.42421597
41.96688207
44.30142749
47.28656677
50.96456563
55.1329625
58.53167897
40.36444804
41.13096809
42.2957142
43.82627194
46.08045391
49.16821755
53.45055103
59.595125
68.76289389
83.56716475
11.47936876
7.385438025
4.574509913
6.669799093
3.732515701
1.959249099
10.25105396
7.957042922
6.828797951
7.709159011
15.72559317
13.89251876
12.67406192
12.86970717
13.79104361
21.758089
20.39811998
19.26314537
19.01995074
19.54008561
19.72684428
27.4539161
26.719655
26.02508044
25.800966
26.17182262
26.3114626
26.24713369
32.12298281
32.01764529
31.98230758
32.25429984
32.99120084
33.59949529
33.96456436
34.09973024
35.57219614
35.89217823
36.3764063
37.20164293
38.55481258
40.13884604
41.80385262
43.29375442
44.04327345
37.96262375
38.475003
39.25147495
40.33158203
41.97835266
44.19704137
47.11771475
50.80454953
54.84969785
57.85184557
39.88098531
40.20903277
40.97313575
42.16506577
43.74948304
45.95379517
49.01840435
53.31182464
59.34463037
68.14501286
82.63749699
12.85836044
9.004417557
6.788194982
6.808337964
4.714356472
1.846935649
7.71776416
5.355419743
3.280135368
3.653262149
11.69796626
9.700608989
8.138182467
8.098393925
9.02950434
17.03909547
15.40682974
13.97819823
13.50775004
13.95778031
14.18872001
22.69780666
21.5203764
20.36184033
19.71963587
19.80251127
19.80307721
19.69510906
27.86928766
27.25067265
26.60324734
26.19773396
26.26461626
26.28827262
26.21637401
26.12517788
32.10151908
31.93735897
31.85909623
31.96976672
32.44221792
32.97100207
33.4527861
33.81564114
33.84036836
35.18737715
35.39716499
35.7178348
36.26336432
37.19737612
38.43635196
39.9635285
41.64285813
43.01523973
43.38470353
37.61467488
37.79498852
38.2996213
39.09832356
40.22694919
41.8187639
44.02484855
46.96532674
50.53694301
54.20323044
56.89935054
39.60264771
39.72119657
40.04174785
40.8150348
42.03270669
43.60341335
45.81440028
48.89379395
53.08604595
58.78560629
67.28552782
81.4066969
13.82567197
10.19037488
8.238612719
7.824145362
6.428457592
4.044209512
6.920671293
5.100581858
2.594770452
0.5800062696
8.813206707
6.808286838
4.785093051
4.171624553
5.041146595
12.99480621
11.22507847
9.552192528
8.831520367
9.223538966
9.532862363
18.18427721
16.72917223
15.27518591
14.36823835
14.31105923
14.30276905
14.22412814
23.48076958
22.45472573
21.35559577
20.498986
20.1937475
19.9737382
19.75751327
19.60883482
28.28712082
27.65805392
27.06121824
26.56559677
26.3848882
26.27062209
26.17047618
26.09096765
25.90363318
32.03597042
31.90802548
31.73883211
31.72151554
31.94988723
32.32057967
32.80180714
33.30087069
33.55690522
33.22756474
34.99874889
35.00498854
35.20084438
35.53861544
36.12929322
37.00940083
38.24919534
39.80503126
41.37272766
42.37531908
42.46066344
37.41814568
37.44261558
37.60914983
38.11513205
38.9289268
40.03754903
41.65092988
43.88315336
46.71770485
49.93933085
53.30282668
55.63815739
39.4321942
39.44004451
39.55043331
39.87505939
40.6631582
41.8918168
43.48443417
45.70843982
48.69822787
52.59723164
58.01773308
66.15412866
79.60771685
14.51947006
11.05507144
9.248579509
8.752586336
7.700463087
5.50003808
7.320784522
6.143149421
4.156234475
2.09509934
7.373548323
5.724875892
3.571167428
1.638922446
1.784518981
9.889146167
8.126071754
6.226963324
5.062389968
5.27502839
5.659957207
14.17158395
12.58133445
10.93347663
9.798343781
9.630293152
9.664054053
9.647754904
19.18646755
17.88681516
16.49171461
15.34806023
14.8425983
14.55267013
14.32160893
14.18350521
24.25594295
23.23641276
22.22368129
21.28099279
20.6824226
20.2416212
19.90022538
19.66619931
19.4402294
28.54417219
28.0708306
27.42967015
26.89366145
26.53028872
26.27386187
26.12207188
26.03830098
25.8672078
25.36254308
32.0243725
31.83583079
31.68686895
31.52972953
31.55753924
31.74216642
32.12944165
32.64667584
33.043784
32.9537803
32.364791
34.89786199
34.81202919
34.79725417
34.9859539
35.32897741
35.89795969
36.81781115
38.09597112
39.5473131
40.76672391
41.48265178
41.23908869
37.29966453
37.24323413
37.25276435
37.41348858
37.91879349
38.73581312
39.88436791
41.52446905
43.66120236
46.18225394
49.11717747
52.11642385
53.79566367
39.32282249
39.26770135
39.26774346
39.3838999
39.72905731
40.55295868
41.80319054
43.40231411
45.54999096
48.29160588
51.93970596
57.01875745
64.51281387
77.08719454
15.02818525
11.68750205
9.969650349
9.482855822
8.621998002
6.512067381
7.953452597
7.147685637
5.447925983
3.524455232
7.220035949
6.09368309
4.383039914
2.369659614
0.5790597029
7.996996831
6.484117033
4.5866509
2.736320944
2.163522503
2.508477683
10.92326859
9.336272145
7.570619
6.13962537
5.749602972
5.808060128
5.860804807
15.23866837
13.79992958
12.23172618
10.88424806
10.23733763
9.948933812
9.758616794
9.660499567
20.19474032
18.8990194
17.5981855
16.35936169
15.51640194
14.94493481
14.53771333
14.27433291
14.0821301
24.79992304
24.01149142
22.97065223
22.01801739
21.2284573
20.59663413
20.12897727
19.79867245
19.49302323
18.9978053
28.71417694
28.32278362
27.82035243
27.18639596
26.7001207
26.31503282
26.0924481
25.98100748
25.81044661
25.32992857
24.59425597
32.02982425
31.82024747
31.60255246
31.43757979
31.27801879
31.28984831
31.53543303
31.97286661
32.39344841
32.46074943
32.10978927
31.2269346
34.83994642
34.7083336
34.59974503
34.56813566
34.74009337
35.08187305
35.71249604
36.67433627
37.85616575
38.98903517
39.93180556
40.307566
39.46173039
37.22457221
37.12283497
37.05151975
37.05586753
37.21784737
37.74799656
38.60770616
39.77842029
41.33514729
43.2008143
45.4603463
48.04501439
50.39365261
51.21939724
39.25003642
39.15702916
39.09462188
39.10310747
39.25085967
39.66162381
40.50819047
41.74960318
43.28813735
45.23731089
47.76211423
51.10148375
55.59238802
62.2382666
74.31381068
15.40895829
12.15651146
10.4967798
10.03663596
9.292167387
7.233558255
8.525178528
7.936125038
6.389748908
4.520869981
7.542401826
6.776264227
5.394870261
3.60196331
1.903755635
7.375920028
6.270560964
4.733463003
2.85654776
1.113904626
0.4562413304
8.701280093
7.300704932
5.590959469
3.823093583
2.815776673
2.708474536
2.792799422
11.90115861
10.45510183
8.81618737
7.280283893
6.429656987
6.124050259
5.981708214
5.930598092
16.3356323
14.89522533
13.42918542
12.00229841
11.00288952
10.394694
10.00210133
9.762777075
9.63707641
20.95030001
19.91548738
18.58531954
17.34057484
16.28076035
15.46681642
14.88188379
14.47669941
14.1661378
13.76228341
25.13638006
24.55325438
23.72638729
22.68766195
21.79452544
21.01944655
20.43984132
20.01303225
19.61628684
19.04990412
18.35657889
28.82960931
28.48957154
28.06010252
27.53281827
26.89232809
26.4059531
26.10527079
25.94263957
25.74854589
25.28181834
24.57233065
23.58256718
32.03927747
31.82307796
31.58196887
31.33561899
31.13847322
30.97910851
31.07790876
31.38132985
31.72770135
31.84152416
31.65549228
31.00112163
29.58260748
34.80472226
34.64852136
34.4938496
34.36768834
34.3162214
34.50367381
34.91360039
35.58421259
36.45942269
37.35897698
38.23512937
38.8429438
38.60622174
36.99920052
37.17506857
37.04642114
36.93013084
36.85567977
36.87030161
37.08342623
37.65844208
38.5271555
39.62897698
40.96181744
42.59853073
44.53544019
46.50842676
48.00414536
48.39514215
39.20015253
39.08333135
38.98351376
38.93191404
38.98169883
39.21789276
39.6620368
40.49081816
41.68557924
43.07897965
44.85072473
47.10947689
49.9384279
53.66056308
59.77528927
71.33808589
15.69940761
12.51010759
10.89052729
10.4557097
9.787122985
7.760456458
8.98611734
8.530570175
7.073939449
5.230938525
7.937343891
7.397338584
6.209889407
4.532710464
2.862938045
7.395062515
6.614888432
5.40316801
3.764797692
2.048197799
1.000951492
7.695800707
6.614105786
5.195899045
3.466125607
1.791201527
0.9169303255
0.7645737862
9.432981724
8.130002731
6.5652677
4.88046244
3.617258413
3.107088823
2.944085008
2.917966967
12.93715214
11.48761273
9.968017749
8.417013473
7.255186157
6.608001254
6.243614807
6.039859217
5.989865136
17.19788064
16.0135804
14.51828945
13.09446136
11.87062849
10.98738406
10.38909484
9.988487372
9.730066202
9.455949568
21.41544497
20.67375892
19.58911568
18.25396184
17.08214609
16.08884291
15.34798787
14.80097536
14.3543829
13.84170776
13.27466025
25.35431021
24.8879424
24.25715187
23.39673733
22.35170696
21.48663043
20.82081169
20.30773918
19.81795931
19.17219642
18.41337791
17.50960982
28.9090865
28.60281178
28.22170771
27.75151851
27.17879213
26.54862315
26.17743287
25.94949062
25.70746417
25.23479538
24.54741474
23.57872941
22.13242532
32.0484149
31.83074429
31.5822991
31.31010778
31.02198529
30.83486571
30.7735744
30.93163549
31.15048614
31.21852651
31.09493098
30.60697103
29.40566361
27.33825124
34.78226251
34.61198662
34.4328254
34.26180474
34.12199433
34.1071424
34.36604274
34.80574552
35.40169959
36.0358244
36.7066321
37.26731828
37.28372991
36.26271521
34.33689239
37.14138271
36.99599024
36.85313861
36.73567849
36.6799805
36.76656734
37.03487362
37.61086617
38.42368715
39.35236205
40.49461786
41.84837634
43.24068017
44.41365208
45.41482267
45.38396364
39.13563396
39.03279809
38.90955258
38.82238978
38.81949574
38.97385938
39.25045681
39.67933485
40.48776085
41.58539749
42.8447399
44.4019244
46.24887846
48.42637592
51.64095102
57.18892476
66.58378049
15.92479942
12.78115107
11.19043584
10.77564491
10.15918624
8.153746977
9.346606794
8.978265691
7.57840494
5.749189176
8.29247541
7.895967763
6.826069046
5.211892176
3.547074809
7.602995251
7.045628426
6.047752525
4.567249491
2.924920665
1.907190311
7.434577381
6.634959797
5.511656613
4.010861907
2.332434066
1.189349577
0.607385476
8.114596766
7.065098034
5.739512319
4.137902334
2.516485037
1.499506879
1.052078243
0.9244610504
10.25898313
8.943996897
7.499172301
5.897782787
4.489912161
3.668401589
3.257159099
3.049389151
3.057247391
13.78613446
12.56410969
11.02710327
9.512464008
8.16455129
7.237280274
6.653531199
6.278046182
6.086352937
5.952450686
17.73418995
16.88641668
15.63718788
14.12342258
12.78351376
11.6947774
10.91352967
10.34959425
9.93640226
9.540634801
9.13720058
21.714777
21.13962674
20.33994395
19.21258073
17.8746761
16.77215123
15.91461216
15.2435608
14.65815511
14.02049213
13.35393502
12.62025982
25.49971679
25.10449829
24.58707352
23.90387294
22.98827659
21.97450922
21.25450556
20.67382124
20.0990653
19.37383512
18.54619457
17.57643949
16.30354325
28.96448435
28.68076059
28.33228277
27.90607841
27.373019
26.811474
26.31313969
26.02051372
25.71622096
25.21642295
24.53739395
23.59274599
22.15981937
20.1895513
32.05605559
31.83863922
31.5885483
31.30920437
30.99772777
30.73354677
30.64897411
30.64069953
30.7225293
30.69577348
30.54934974
30.13693326
29.11228291
27.23743952
24.96301727
34.76737595
34.58860553
34.39556107
34.20149135
34.02359808
33.93823463
34.00424872
34.28611502
34.66221811
35.06200454
35.50162386
35.8892489
35.90809341
35.16361192
33.74986203
31.55308555
37.09986544
36.96164358
36.80234584
36.65990896
36.56783129
36.59900218
36.74764224
37.01938939
37.56400115
38.24945201
39.02990087
39.9386319
40.83922303
41.5283829
42.20134701
42.69499695
40.6177411
39.06550368
38.96736154
38.85885077
38.74964736
38.71661476
38.82948191
39.02864289
39.29142065
39.73279827
40.51141787
41.50561801
42.6080285
43.86786934
45.20950387
46.94690713
49.62167422
53.2347211
57.94413517
16.10243447
12.99221968
11.42292078
11.02294405
10.44377758
8.45315184
9.627347438
9.318827165
7.95707663
6.135826616
8.585766795
8.284103797
7.289676517
5.712855294
4.046080618
7.841870249
7.432191032
6.570151941
5.183779949
3.577652988
2.555990442
7.454797467
6.86547238
5.957811833
4.636998985
3.056776782
1.979071336
1.471874374
7.604379281
6.794666507
5.724737534
4.33354575
2.723956925
1.528443731
0.8443738305
0.4186806925
8.655397667
7.576065351
6.330317865
4.836125643
3.260050824
2.136059783
1.508761842
1.150234394
1.119250139
10.97230189
9.83209392
8.383670618
6.866898477
5.387774631
4.344075944
3.718476533
3.325362632
3.167636711
3.156406599
14.3236873
13.43510981
12.12686926
10.54324594
9.104937614
7.974271842
7.200104438
6.654269531
6.298177867
6.036255105
5.803905796
18.08089052
17.42743624
16.5100293
15.20621791
13.69178993
12.47399653
11.55233178
10.84301376
10.26896793
9.729459842
9.217556843
8.687431788
21.9134236
21.43899949
20.80260524
19.93950989
18.75098529
17.47651886
16.54975168
15.78645586
15.07652134
14.31070075
13.53268066
12.70331552
11.68814854
25.5989616
25.24887442
24.80112029
24.22490676
23.46049301
22.56634827
21.72047037
21.09656436
20.45390823
19.65787848
18.76543406
17.73124032
16.38888456
14.71711879
29.00358407
28.73508021
28.40868578
28.01405253
27.52281489
27.00556986
26.58160495
26.16074453
25.79578764
25.25704102
24.57015349
23.64388878
22.24082882
20.26514433
18.18433969
32.0620979
31.84540263
31.59557119
31.31534981
31.00121297
30.72731429
30.57359007
30.53681897
30.4603905
30.33276225
30.12006431
29.70909991
28.79339137
27.10067735
24.95628887
22.54614881
34.75242162
34.5730614
34.37171289
34.16499578
33.96959621
33.8592291
33.86120669
33.95240094
34.1920647
34.41299944
34.65679518
34.85607316
34.77680968
34.10065234
32.93238448
31.14854515
27.2581102
37.0533962
36.91919531
36.76776112
36.61008693
36.4979444
36.50313103
36.60070082
36.75425501
37.02557332
37.50657296
38.074143
38.67694166
39.24167775
39.57054874
39.80290642
39.95495237
38.524575
32.26055912
39.02076837
38.89623083
38.79318853
38.69986228
38.64871869
38.73920102
38.89959356
39.08561831
39.38270121
39.86535995
40.60021
41.47772297
42.40500085
43.32138552
44.32032227
45.60543154
46.86344851
46.77317742
46.86490611
16.24437797
13.15899845
11.60600194
11.21665856
10.66504647
8.68516109
9.847196198
9.581368872
8.246401736
6.430045136
8.821531574
8.585220742
7.641816882
6.088750643
4.418080855
8.060022347
7.750069095
6.977104487
5.649301526
4.060943275
3.028902289
7.571311485
7.128669606
6.366020678
5.162007006
3.645000792
2.593693833
2.095901481
7.445040971
6.827367143
5.962037319
4.756054428
3.256135872
2.131792694
1.551072929
1.251124244
7.903427118
7.052718497
6.02460202
4.720200949
3.185846026
1.963436231
1.218704761
0.6961473374
0.2185550466
9.162511691
8.190426591
6.938842223
5.537475721
4.004873508
2.804855538
2.053936616
1.540939611
1.287990716
1.316934057
11.43757019
10.58095174
9.326151555
7.779407324
6.280464528
5.089737041
4.297363373
3.739864335
3.402973722
3.245741181
3.166025367
14.67469139
13.98318191
13.01087135
11.62901904
10.03375403
8.775583004
7.856488354
7.161513806
6.636189306
6.221469419
5.879242103
5.55402437
18.31149762
17.77644572
17.05132732
16.0595628
14.68992009
13.27975017
12.27008239
11.44962162
10.72772877
10.03581203
9.397231605
8.766569494
8.035183703
22.04846568
21.63748075
21.10025512
20.392492
19.43408873
18.28745072
17.21720213
16.40085274
15.59522139
14.71356304
13.82370174
12.89048818
11.78015505
10.47772825
25.66801527
25.3473602
24.94401066
24.43508443
23.77016656
23.02092646
22.30174387
21.55703029
20.87065586
20.02098637
19.07519617
17.98591099
16.58402173
14.8310951
13.11950606
29.03153488
28.77341129
28.46203741
28.08944301
27.63136693
27.16408027
26.79020787
26.44059089
25.95173558
25.37789001
24.67507829
23.75914891
22.39639624
20.44913935
18.31792374
16.20348583
32.07655865
31.85081697
31.60176712
31.32259231
31.01165369
30.74560687
30.58792492
30.48374284
30.39552364
30.14319542
29.86206048
29.41877643
28.5601265
27.01469089
25.01270526
22.65059439
18.93564912
34.73336448
34.55718453
34.35585616
34.14180594
33.93795209
33.81931297
33.80045938
33.82904225
33.90574657
34.04753943
34.14060218
34.19407237
34.02083616
33.34834185
32.26019745
30.67541426
27.22042641
20.26582409
37.02400408
36.87170688
36.72499247
36.57624483
36.45244674
36.44480431
36.51911375
36.62233088
36.79613911
37.07146454
37.49206856
37.92157596
38.29829246
38.44250601
38.39477999
38.15800999
36.76690262
31.62251704
22.37713334
38.99898735
38.85082983
38.72185125
38.63552333
38.60246885
38.68026178
38.81997204
38.96748077
39.2022001
39.5854756
40.09673319
40.79283617
41.59059665
42.33686184
43.02018501
43.68649483
44.22202634
43.44905736
41.12131173
34.0680885
16.40424412
13.29253284
11.75221157
11.37038902
10.8396782
8.867823327
10.02097377
9.786612199
8.471164422
6.657964219
9.009940114
8.820331925
7.912919318
6.375811368
4.700962907
8.245101235
8.00460598
7.292481239
6.003108409
4.423842178
3.38110455
7.708301732
7.367600722
6.702849684
5.574676951
4.095034604
3.051466071
2.550689337
7.438502851
6.96186537
6.242676872
5.16683113
3.750780581
2.677289209
2.13711417
1.859240791
7.558275535
6.899536173
6.057925525
4.932214293
3.513985508
2.36297846
1.716266127
1.335359017
0.9772318838
8.224291621
7.425870997
6.384877388
5.153062258
3.689028954
2.455643806
1.664423156
1.086406771
0.5634275826
0.2155548506
9.510180649
8.741917904
7.630166928
6.224162044
4.737860469
3.490096774
2.651069267
2.031782171
1.60403256
1.436342024
1.440747678
11.74649735
11.06383141
10.10624805
8.746716145
7.144665083
5.86821228
4.958103614
4.27005984
3.763811573
3.438925843
3.240710886
3.097174131
14.9095913
14.33980899
13.56546574
12.50575509
11.04774054
9.598519179
8.586540442
7.77780179
7.097723482
6.51988808
6.046485726
5.623798979
5.165787683
18.46846819
18.00827654
17.40047604
16.59268342
15.49550644
14.19651427
13.02577708
12.1376506
11.29790342
10.46210584
9.689890757
8.943763211
8.116053321
7.187518359
22.1421577
21.77232042
21.29768808
20.68554711
19.86964916
18.93534376
18.00096695
17.05265247
16.18907696
15.21793991
14.22946392
13.19552662
11.9870377
10.58439834
9.282778045
25.71689379
25.41585788
25.04155081
24.57609046
23.97665016
23.32842122
22.75735005
22.1388037
21.33191861
20.45314478
19.47263991
18.34484595
16.90294002
15.08850082
13.26693319
11.58402383
29.07660219
28.80080829
28.49973052
28.1423959
27.70855424
27.28154995
26.96233041
26.66389351
26.25680682
25.58321841
24.87089582
23.96451909
22.65054422
20.76376486
18.62569652
16.40254365
13.33772194
32.08803226
31.86440149
31.60679717
31.32906749
31.02239467
30.76714657
30.62114647
30.51428983
30.38147848
30.16480664
29.7830869
29.31235642
28.49524724
27.07590471
25.21091147
22.93517294
19.25228184
13.5251216
34.72173451
34.53711039
34.33955857
34.12647231
33.91837842
33.79775816
33.77328606
33.78179509
33.81468871
33.85503313
33.92160553
33.86043977
33.64650894
33.00544483
31.96975581
30.47318842
27.43787151
21.00335869
12.9970297
37.0097811
36.84163615
36.67719258
36.53455684
36.42177384
36.40754787
36.47074433
36.55100478
36.68817376
36.90883086
37.19351832
37.55128932
37.84761316
37.95838949
37.82428832
37.40189854
36.17207166
32.15250943
24.56422061
11.20462332
38.99897794
38.82871657
38.67632804
38.5657331
38.54315306
38.64044
38.768533
38.89539048
39.10118832
39.45094231
39.90615092
40.46958627
41.22817821
41.95812765
42.57703719
43.05110639
43.63414762
43.76220439
43.53137961
42.82648231
16.57036201
13.44320635
11.91679709
11.493884
10.97937543
9.013677303
10.15979289
9.949245218
8.648449
6.837366371
9.160940233
9.005752585
8.124627537
6.598720206
4.919958883
8.397964861
8.207378889
7.538398298
6.275444719
4.700952684
3.648665255
7.837855164
7.569324781
6.97247945
5.895301231
4.438457596
3.395512097
2.889191266
7.491312502
7.115969815
6.498976131
5.511432881
4.150216653
3.102780908
2.576459718
2.302472997
7.417936709
6.906218698
6.205589753
5.214570816
3.894408913
2.811046209
2.227795546
1.902362646
1.562503324
7.727611685
7.083585429
6.229438719
5.16323052
3.818738407
2.660453293
1.961186333
1.508261771
1.071803607
0.657194511
8.461701485
7.793468011
6.842305018
5.612123743
4.212178986
2.979864764
2.152457864
1.530454294
0.9616073418
0.5132136201
0.3781004571
9.747355162
9.112438573
8.22775718
6.977418107
5.446781592
4.176876002
3.278380151
2.584402496
2.025711083
1.674812553
1.529880663
1.500881396
11.95536751
11.38249725
10.60465318
9.541635838
8.078567869
6.648062557
5.666121893
4.885404121
4.235569314
3.741197029
3.403765076
3.161126514
2.941428758
15.07011536
14.57796642
13.92564853
13.05757159
11.88285038
10.52630368
9.350899902
8.470888978
7.666222848
6.932439378
6.317683968
5.779191526
5.231628152
4.644150234
18.57746101
18.16593959
17.63234636
16.93777385
16.0076065
14.95275176
13.90078671
12.86856122
11.95200741
10.99746169
10.09932495
9.233047564
8.297265344
7.273116352
6.359969069
22.20834081
21.86582827
21.43184382
20.88053121
20.15492233
19.35745709
18.63575079
17.82562281
16.82644767
15.80178938
14.74031635
13.62159617
12.32404791
10.82368937
9.406131026
8.159796752
25.7909724
25.46432849
25.1094176
24.6726269
24.1166165
23.53684687
23.07010017
22.60003646
21.92267437
20.93744923
19.94730222
18.80398446
17.3493647
15.50592423
13.59753654
11.76706357
9.424080331
29.12014086
28.84510861
28.52669147
28.17993901
27.76332191
27.36598537
27.09033773
26.84760767
26.50791518
25.9505917
25.15786639
24.27301658
23.02149637
21.22590971
19.12983526
16.85109422
13.65177404
9.35668877
32.09619022
31.87489811
31.61986622
31.33435371
31.03155557
30.78597334
30.65326223
30.55883418
30.43930269
30.23020167
29.9289856
29.38775503
28.62858022
27.34289458
25.62316256
23.46420355
19.97280247
14.21813335
8.505232596
34.71625624
34.52480238
34.31905963
34.11095131
33.90571714
33.7854148
33.76065517
33.7638953
33.78926586
33.82509756
33.8546929
33.83593368
33.59159287
33.04359661
32.1111015
30.71844931
28.14221834
22.65550619
14.90754683
6.175496985
37.00980311
36.82707446
36.64693049
36.48804417
36.38459317
36.3828005
36.44050496
36.50972909
36.63309484
36.84467305
37.11654035
37.42648579
37.78864077
37.92803012
37.85895033
37.45759444
36.62771978
33.98856449
28.84459158
18.94836535
39.02073877
38.82870786
38.65415802
38.52127822
38.47903154
38.59014517
38.73405775
38.84922472
39.04086662
39.38062976
39.82903744
40.38905431
41.15900308
42.02007062
42.66633292
43.18430722
44.14620717
45.54449561
47.78528202
52.55664473
16.70889268
13.60006439
12.0877341
11.63366328
11.13687764
9.177846583
10.27186398
10.07974193
8.790213761
6.98059229
9.282761807
9.153612147
8.292253876
6.774491563
5.092224084
8.523187064
8.369485427
7.732113826
6.48805102
4.916062693
3.855584149
7.951480645
7.735300807
7.18702548
6.14546219
4.703157299
3.65814989
3.146176597
7.562190342
7.260046371
6.715401932
5.788749564
4.463426691
3.42911504
2.907030818
2.632260513
7.37603754
6.973142076
6.374891213
5.479474505
4.228326538
3.187233638
2.634475015
2.3298026
1.989346215
7.472946301
6.953172238
6.246187109
5.312219828
4.074045265
2.994091212
2.371982691
1.996715244
1.609502777
1.204772563
7.872090893
7.298882214
6.49770268
5.438265492
4.158055225
3.00745828
2.270535005
1.760077306
1.259308998
0.7680881792
0.402282492
8.630003204
8.055831502
7.262641301
6.150518245
4.738291727
3.51757252
2.665605985
2.008856615
1.393503254
0.8676466721
0.5615326198
0.5141745655
9.910341694
9.362588933
8.621742701
7.61239612
6.217454297
4.850170995
3.918141651
3.174691703
2.518465244
2.013296844
1.714502922
1.569536525
1.50781966
12.09905215
11.59717658
10.93190181
10.0476277
8.853783726
7.512612542
6.389582832
5.553827507
4.794191075
4.145518273
3.662461743
3.30175093
2.995926811
2.69624724
15.18187146
14.74049519
14.16587955
13.41642149
12.41526116
11.30639551
10.22764887
9.203729435
8.314236971
7.447758985
6.695772153
6.032344577
5.378773229
4.707502026
4.132564357
18.65449374
18.27534674
17.79000241
17.16738299
16.34216349
15.44186085
14.63127958
13.72255256
12.6546015
11.61863852
10.61692704
9.6390685
8.59366164
7.465326152
6.450845631
5.594611179
22.30611686
21.93185932
21.52488628
21.01326498
20.34608779
19.6373188
19.05414647
18.45639432
17.59137772
16.4356194
15.33546664
14.15926602
12.79468456
11.21321618
9.683244441
8.299189813
6.615881549
25.86534644
25.53784932
25.15745311
24.73991856
24.21304153
23.67946788
23.28373245
22.91876834
22.39816147
21.56211377
20.48062573
19.35006616
17.91539919
16.08456699
14.13065541
12.1778302
9.661962131
6.609082633
29.14911398
28.88777431
28.5704109
28.20685277
27.80238983
27.42625096
27.18248432
26.98402694
26.71209965
26.26170162
25.61988541
24.67771866
23.5107527
21.83863014
19.83490978
17.56926412
14.35480681
9.829137396
5.980814538
32.10045333
31.88240284
31.62982732
31.34783169
31.03886089
30.80098795
30.67956165
30.59880882
30.50252465
30.34060397
30.10289422
29.70079415
28.9408947
27.81693736
26.27218656
24.27249616
21.11297765
15.76093422
9.597204544
4.53441394
34.71631212
34.51898552
34.30648523
34.09141134
33.89400793
33.77796977
33.75461931
33.75769686
33.78622546
33.83993774
33.90396611
33.93005364
33.85421328
33.37181402
32.61092036
31.39448415
29.35272101
25.04959238
18.67333288
10.07083321
37.02407127
36.82709736
36.6322777
36.45868002
36.34320425
36.35392626
36.42076495
36.4844621
36.60299735
36.818883
37.10751128
37.45571163
37.91013387
38.27938191
38.28012192
38.04245733
37.75285325
36.51541771
33.67025525
27.5866198
39.06544948
38.85080233
38.65414944
38.4996522
38.4384131
38.53602216
38.6912379
38.81849618
39.00291724
39.34122157
39.79662918
40.3815708
41.22971868
42.27033115
43.16283216
43.74558211
45.19833096
47.79693935
51.99674763
60.03276838
16.82422826
13.73106137
12.23023417
11.77962132
11.30071249
9.348355204
10.39931071
10.2272962
8.950001235
7.141773911
9.381828821
9.272818666
8.426695266
6.915023229
5.229635927
8.625766006
8.49999954
7.886455582
6.65636223
5.085608847
4.018157987
8.048132071
7.870846761
7.358334905
6.342538397
4.909892266
3.861873428
3.344780069
7.633881895
7.385520459
6.893254438
6.009797864
4.708698066
3.680977061
3.159378442
2.882530628
7.379399972
7.056743659
6.532728497
5.705072964
4.501358097
3.485658974
2.947856435
2.651721973
2.306808027
7.347277244
6.923056811
6.3264132
5.4904707
4.331518934
3.306767114
2.729429575
2.391010097
2.019626305
1.605016926
7.545055217
7.052676531
6.375668854
5.457056606
4.28619183
3.220695824
2.567866667
2.145819932
1.711051868
1.255717204
0.9064049171
7.981141581
7.468615074
6.767419024
5.794185947
4.518925602
3.386574741
2.626306752
2.073490926
1.5225768
0.9730122203
0.5373544895
0.2059516381
8.748246387
8.23863517
7.552699635
6.62185644
5.330335068
4.053149622
3.18984549
2.509265362
1.852088296
1.255359741
0.8395118678
0.6315286114
0.6230473659
10.02363335
9.533465422
8.885118767
8.025219719
6.863007762
5.589012765
4.553480526
3.783581595
3.05735702
2.427358921
1.987765181
1.715098103
1.559428638
1.451163311
12.19953041
11.74452301
11.15169189
10.37910028
9.350078185
8.242332877
7.204534604
6.244274586
5.411474935
4.635077807
4.014254606
3.527221068
3.116725172
2.742249497
2.443998604
15.26100276
14.85354419
14.32968547
13.65590599
12.76380016
11.81097275
10.97373858
10.05210219
9.00792823
8.043649779
7.172699706
6.387440807
5.619727787
4.850083872
4.193325243
3.663275965
18.76670951
18.3526395
17.89938551
17.32367324
16.56595619
15.76456852
15.10841727
14.44016429
13.48486677
12.29362154
11.22202381
10.15441183
9.010658536
7.780806431
6.656612117
5.688653886
4.561671356
22.40626826
22.02943797
21.59059145
21.10542663
20.47679542
19.82623839
19.33340338
18.8746756
18.22184495
17.20491168
15.98590557
14.78726389
13.38829106
11.7562801
10.13518754
8.615887947
6.772872682
4.710540563
25.91440154
25.61155755
25.23040151
24.78760405
24.28052351