/*--------------------------------*- C++ -*----------------------------------*\
  =========                 |
  \\      /  F ield         | OpenFOAM: The Open Source CFD Toolbox
   \\    /   O peration     | Website:  https://openfoam.org
    \\  /    A nd           | Version:  13
     \\/     M anipulation  |
\*---------------------------------------------------------------------------*/
FoamFile
{
    format      ascii;
    class       volScalarField;
    location    "0";
    object      magU;
}
// * * * * * * * * * * * * * * * * * * * * * * * * * * * * * * * * * * * * * //

dimensions      [0 1 -1 0 0 0 0];

internalField   nonuniform List<scalar> 
291769
(
76.52227299
50.1996528
35.61974887
25.38496215
17.43597323
11.06814513
6.330157672
4.670449965
6.624257155
9.39393832
11.48586291
12.86848648
13.83717953
14.53137903
15.04017415
15.42103243
15.71170441
15.93747163
16.11558775
16.25805396
16.418651
16.58581725
16.72574668
16.84282154
16.94054609
17.02190584
17.08961717
17.14619938
17.19387051
17.2343236
17.28250682
17.32087171
17.33299854
17.32312616
17.29764888
17.26276732
17.22321405
17.18218176
17.14168864
17.10295611
17.02394846
16.87754044
16.70868502
16.51803082
16.31069204
16.10477824
15.95549419
16.04017242
17.08347732
25.55644845
64.96396308
50.4291832
38.34152388
28.78836733
21.0704701
14.75743229
9.761418358
6.503837182
5.91021619
7.414667974
9.064529061
10.26339549
11.13435839
11.77007223
12.24099733
12.59591239
12.86804108
13.08010827
13.24783073
13.38223576
13.53399919
13.69219801
13.82484463
13.93598337
14.02883653
14.10616927
14.17053212
14.22432397
14.26968206
14.30825134
14.35438747
14.39150508
14.40350857
14.39427725
14.3699463
14.33652852
14.29861329
14.25928362
14.2204759
14.18335404
14.10757038
13.96700603
13.80443376
13.61943187
13.41408352
13.19728516
12.9927527
12.85024116
12.82556775
12.29831044
57.7940945
48.58026425
39.14810188
30.68224037
23.39314136
17.22493282
12.16988932
8.438787427
6.577292575
6.804474624
7.872902506
8.82506644
9.567334152
10.12769733
10.55072875
10.87331931
11.12261829
11.31798265
11.47313737
11.5978638
11.73909711
11.8866503
12.01074566
12.11499254
12.20223732
12.27495864
12.33550674
12.38615223
12.42895982
12.46553851
12.5096459
12.54593175
12.55826386
12.54994807
12.52685269
12.49487415
12.45852269
12.4208081
12.38360242
12.34802067
12.27539139
12.1405242
11.98365958
11.80245592
11.59399308
11.35337973
11.06412435
10.65323732
9.78915218
7.030149653
52.88294215
46.30304302
38.94127581
31.66282549
24.95763105
19.0355235
14.0152949
10.07995846
7.589434556
6.874967071
7.340868485
8.007514812
8.597371227
9.068543852
9.435260121
9.720132081
9.942980326
10.11911018
10.25986469
10.37354862
10.50283423
10.63836719
10.75289829
10.84949617
10.93054047
10.99816265
11.05448623
11.10165599
11.14168442
11.1761698
11.21829884
11.25423432
11.26740819
11.26031749
11.23855375
11.2079792
11.17309886
11.13689265
11.10118783
11.06705577
10.9974402
10.86801634
10.71637755
10.53790934
10.32439492
10.05862496
9.697244858
9.122927514
8.047472816
6.544913815
49.29210296
44.18653925
38.29404572
32.09629641
26.04237022
20.44908344
15.53490761
11.50883384
8.657668104
7.290011436
7.20689269
7.571358198
7.990463734
8.35973698
8.661770619
8.903324699
9.095855758
9.249986196
9.374291144
9.4753653
9.591045475
9.713067137
9.816914571
9.904992515
9.97913128
10.04105792
10.09264338
10.13591004
10.17283842
10.20504059
10.24513274
10.28111038
10.29564371
10.29015849
10.26992026
10.24081671
10.20741443
10.17270643
10.1384961
10.10581817
10.03927976
9.915544317
9.769656991
9.595179304
9.380500712
9.10340447
8.719913224
8.155409201
7.406464414
7.700271745
46.56899914
42.38781616
37.52406894
32.22265055
26.80737262
21.59078272
16.83801097
12.7896918
9.711215691
7.881631132
7.330115939
7.396408904
7.633671979
7.890496913
8.119996244
8.312632477
8.470828389
8.600010317
8.705630515
8.792337254
8.892494234
8.999554157
9.091523109
9.170081373
9.236473135
9.291979024
9.338193761
9.377018119
9.410412143
9.440015501
9.477813027
9.513968998
9.530286513
9.526865499
9.508517285
9.481146828
9.449419056
9.41637648
9.383821843
9.35276431
9.289716273
9.172721615
9.03461628
8.868476414
8.663022827
8.401098822
8.062937616
7.663735478
7.466930786
8.973936311
44.46932435
40.91856641
36.78846882
32.19841728
27.35925063
22.52996227
17.97550493
13.95330251
10.72693015
8.559892299
7.620534389
7.408531794
7.461781053
7.599511381
7.750285507
7.889126896
8.009298885
8.110759453
8.195618666
8.26644823
8.349688935
8.440392304
8.519279657
8.587268357
8.645005983
8.693303568
8.733459989
8.767245146
8.796590421
8.82315223
8.85812086
8.89409862
8.912348862
8.911501618
8.895658539
8.870589439
8.841023229
8.810070624
8.779560635
8.750495298
8.691771549
8.583476203
8.45674981
8.306140823
8.124980576
7.909657645
7.676902053
7.527035209
7.856058318
10.07590984
42.8454581
39.7487398
36.15514379
32.11968637
27.77313725
23.31184407
18.97266249
15.01073572
11.69049854
9.27097003
8.01428183
7.55311307
7.428860751
7.445938163
7.514548248
7.59623966
7.675591914
7.747128016
7.809542039
7.863224391
7.928206756
8.001084366
8.065650146
8.121983815
8.17012806
8.210423164
8.243855278
8.27202685
8.296787401
8.319747102
8.350984673
8.385561641
8.405257114
8.407426388
8.395045082
8.373322707
8.346865113
8.318824154
8.291081766
8.264663691
8.211638755
8.114960521
8.004542281
7.878415601
7.737784407
7.596272483
7.50461075
7.615113645
8.350947617
10.99113181
41.47797853
38.76944018
35.63030125
32.07674265
28.18161642
24.08261162
19.97596553
16.09962332
12.71430922
10.07914497
8.532258898
7.827642066
7.518267957
7.403126103
7.378623229
7.394115852
7.425513208
7.46157983
7.497238759
7.530376244
7.573336487
7.62431456
7.671107279
7.712831973
7.7489024
7.779190555
7.804314986
7.825577796
7.844570517
7.862669666
7.888068097
7.918011694
7.937344907
7.943078706
7.936266384
7.920441237
7.899499296
7.876479851
7.853341638
7.831195057
7.787130249
7.708276742
7.623275401
7.535875394
7.457633051
7.419821347
7.498297617
7.866283184
8.927346235
11.85816925
40.49747564
38.04253559
35.20549817
31.98660952
28.42744636
24.62406772
20.73220615
16.9613982
13.55899064
10.78253546
9.024015223
8.130311749
7.668660361
7.43957064
7.332040087
7.287076125
7.273927269
7.276604259
7.286749596
7.299989653
7.321230001
7.350092192
7.378550434
7.404909585
7.428277849
7.448369881
7.465468671
7.480314997
7.493890119
7.507049283
7.525591392
7.547345055
7.562419441
7.56976071
7.568927082
7.560801995
7.54758608
7.531691148
7.514985601
7.498657229
7.466385674
7.4095432
7.354563903
7.310976982
7.298745099
7.36000794
7.580322858
8.131342844
9.390980122
12.48536588
39.97142156
37.65892352
34.98972725
31.95716153
28.58826288
24.95783272
21.19804694
17.49876174
14.0957003
11.24355703
9.363796915
8.357641531
7.802089027
7.500436874
7.338666927
7.253439754
7.210178833
7.189994482
7.182443073
7.181680809
7.187389153
7.199982742
7.214536765
7.228940354
7.24242476
7.254913358
7.266477155
7.277191385
7.287274019
7.296987822
7.310169326
7.323974987
7.333019552
7.339126083
7.341861289
7.340029403
7.333868202
7.324756191
7.314218793
7.30341412
7.282051243
7.24434224
7.213844437
7.203911935
7.239043915
7.365783733
7.671446696
8.322667
9.683352237
12.85940619
39.66516164
37.43887772
34.87069396
31.95038313
28.6971614
25.17377454
21.49807156
17.84680819
14.44703397
11.55064785
9.596663122
8.52005523
7.904430585
7.555459794
7.357752072
7.245509231
7.181836838
7.146013974
7.126243629
7.11571286
7.110454252
7.111278245
7.115480268
7.120771414
7.126725021
7.133652768
7.141498002
7.149674561
7.157637088
7.165106539
7.174500512
7.182008176
7.185221635
7.188496101
7.192464551
7.194867397
7.194252415
7.190830924
7.18560342
7.179579727
7.16754108
7.145519881
7.133937577
7.148595291
7.216504016
7.38608746
7.744512069
8.454563554
9.872567308
13.09482471
39.47604301
37.3046402
34.80054765
31.95150905
28.77213496
25.31783027
21.69734253
18.07864806
14.68258129
11.75873583
9.757166279
8.634694542
7.979453899
7.598902135
7.376963389
7.246353737
7.168708878
7.122113945
7.093872928
7.076521084
7.063536077
7.055913046
7.052516326
7.050997554
7.051323889
7.054227057
7.059575161
7.066201408
7.072891373
7.078917592
7.085711352
7.088578818
7.08693426
7.086968904
7.090723129
7.095639581
7.099029049
7.100031119
7.099068715
7.096934316
7.092454212
7.082858583
7.085560427
7.117928103
7.208458776
7.406475873
7.798671608
8.545256645
9.998219124
13.24869447
39.35395053
37.21879986
34.75695791
31.95492592
28.82442968
25.41617223
21.8329084
18.23663265
14.84376103
11.90210593
9.868956993
8.715725782
8.033691289
7.63161347
7.393047396
7.249764568
7.162433876
7.108340223
7.074177345
7.052033934
7.03358786
7.019912472
7.010980794
7.004438039
7.00061191
7.000610899
7.004259072
7.009917629
7.015827696
7.020908497
7.025903372
7.025405683
7.019965786
7.017012767
7.019907
7.026197159
7.032362621
7.036665189
7.038991449
7.039899854
7.041340417
7.041375119
7.054756884
7.099866503
7.206141386
7.423399215
7.837904555
8.608173281
10.08356665
13.35217958
39.27233407
37.161833
34.72868223
31.95858233
28.86136957
25.48461864
21.92702137
18.34642196
14.95608322
12.0024768
9.947785277
8.773415232
8.072862691
7.655830018
7.40566008
7.253499666
7.159362574
7.099984492
7.061636843
7.036097371
7.013765912
6.995740107
6.982782717
6.972553496
6.965679191
6.963578179
6.966048756
6.971084578
6.976501389
6.980946708
6.984675413
6.981727045
6.973401322
6.967950656
6.969817752
6.976814061
6.98488082
6.991602243
6.996411097
6.999648039
7.00563169
7.013031106
7.034366961
7.088682225
7.206042907
7.436574873
7.866220851
8.65236707
10.14270115
13.42340773
39.21621418
37.12287644
34.7096862
31.9618077
28.88779642
25.53308248
21.9935348
18.42406737
15.03567298
12.07382325
10.00409545
8.814893179
8.101296493
7.673691978
7.415293564
7.256821589
7.157834922
7.094684417
7.053343961
7.025371452
7.00025051
6.97907655
6.963181635
6.950246201
6.941133716
6.93750697
6.93914924
6.943774122
6.948872058
6.952883519
6.95570961
6.950962857
6.940464261
6.93302334
6.933920904
6.941259787
6.950636071
6.959125251
6.965793472
6.97079431
6.980226915
6.993215922
7.020472008
7.081478454
7.20673967
7.446593016
7.886751803
8.683833823
10.18441185
13.47341248
39.14330162
37.07435797
34.68938331
31.97273597
28.93112036
25.60691938
22.09203464
18.53731181
15.15066928
12.17636216
10.08501487
8.87477186
8.142790466
7.700336963
7.430404823
7.263098578
7.157330747
7.088908058
7.043384737
7.012009157
6.982984568
6.957371777
6.937299944
6.92049239
6.908179304
6.902401352
6.902926126
6.907047927
6.911767693
6.91521504
6.916794001
6.909464996
6.895748191
6.885179321
6.884310556
6.89182502
6.902910061
6.913901249
6.923288355
6.930910398
6.945479937
6.96679716
7.002708491
7.073274203
7.209625696
7.462421001
7.917083555
8.729212353
10.24392664
13.54448365
39.06381361
37.01998858
34.66417154
31.98000193
28.97241488
25.6807592
22.19282778
18.65505261
15.27179078
12.28561889
10.1721148
8.939780514
8.188221222
7.729788148
7.447340871
7.270384482
7.157168489
7.082927989
7.03276953
6.997606859
6.964214697
6.93359554
6.908774082
6.887539224
6.871562772
6.863338769
6.862623567
6.866220084
6.870549564
6.873368085
6.873488034
6.863066083
6.845525266
6.831153539
6.82787462
6.835174387
6.847931122
6.861677174
6.874202546
6.884926142
6.905635481
6.93702215
6.983157782
7.064604277
7.213169163
7.479866792
7.949817228
8.777585696
10.30687675
13.61935438
39.01291746
36.98539563
34.64848881
31.98538884
28.99991469
25.72947984
22.2592216
18.73267322
15.35180608
12.35803178
10.23012451
8.983341861
8.218924733
7.749958169
7.459234445
7.275878907
7.157712599
7.079597292
7.026344532
6.988645724
6.952316436
6.918308569
6.8902503
6.865983594
6.847496906
6.837609594
6.836075168
6.839351563
6.843448212
6.845850174
6.844942631
6.83226578
6.811961211
6.794827607
6.789651569
6.796530865
6.81023528
6.825785608
6.84047186
6.853386963
6.878484646
6.917181041
6.970593483
7.059521374
7.216241522
7.4920442
7.971884315
8.809693414
10.3483132
13.66844073
38.98807964
36.96859277
34.64100046
31.98827801
29.01370189
25.75374044
22.2922261
18.77125718
15.39161336
12.3941156
10.25910865
9.005182182
8.234393309
7.76019573
7.465353868
7.27880906
7.158172265
7.078120979
7.023320086
6.984349788
6.946544193
6.910826776
6.881129851
6.855324024
6.83556187
6.824831821
6.822887724
6.826010463
6.829995941
6.832185378
6.830734308
6.816835322
6.795051264
6.776467888
6.770268115
6.776857135
6.790979095
6.807413446
6.82319566
6.837243259
6.864630801
6.907200145
6.96442489
7.057179222
7.217986179
7.498294507
7.982992888
8.825713807
10.36889059
13.69276442
38.98807012
36.96861566
34.64105806
31.98836829
29.01381646
25.75386363
22.29233778
18.77133959
15.39165891
12.39413005
10.25910662
9.005174988
8.234384963
7.76018714
7.465344759
7.278799183
7.158161893
7.078110863
7.023310901
6.984341508
6.94653702
6.910821856
6.881127738
6.855323703
6.835561395
6.824829031
6.822881157
6.825999556
6.829980257
6.832163701
6.830698727
6.816763689
6.794941275
6.776350807
6.770169772
6.776779209
6.790912634
6.807350878
6.823133777
6.837181802
6.864573609
6.907167218
6.96441631
7.057183019
7.217994352
7.498305886
7.983010355
8.825741715
10.36893205
13.69282322
39.01288755
36.98546552
34.64866552
31.98566601
29.00026592
25.72985649
22.2595617
18.73292287
15.35194313
12.35807468
10.23011803
8.983320161
8.218899803
7.749932612
7.459207349
7.275849336
7.157681178
7.079566367
7.026316631
6.988621441
6.952297431
6.918298567
6.890250066
6.865989554
6.847503074
6.837609382
6.836064065
6.839327885
6.843410846
6.845795499
6.844849941
6.832076229
6.811669795
6.794518327
6.789393258
6.79632789
6.810063635
6.825625145
6.840314026
6.8532309
6.878340465
6.917100141
6.970576212
7.059536442
7.216267981
7.492079074
7.971937136
8.809778419
10.34844132
13.66862289
39.06375876
37.02010933
34.66447986
31.98048579
28.97302627
25.68141127
22.19341199
18.65547706
15.27202062
12.28568896
10.17210281
8.93974395
8.188179933
7.729746229
7.447296499
7.270335432
7.157115144
7.082874293
7.032721209
6.997567461
6.964191013
6.933593704
6.908791917
6.887569257
6.871594832
6.863361723
6.862629605
6.866206414
6.870515002
6.873307953
6.873373939
6.862821841
6.845147586
6.830755766
6.827548211
6.834924416
6.847724851
6.861487783
6.874018769
6.884746163
6.905471833
6.936937364
6.983152853
7.064639854
7.21321904
7.479928497
7.949907479
8.777731684
10.30710329
13.61967909
39.14321354
37.07453659
34.68984591
31.97346234
28.93203411
25.60788576
22.09289017
18.53792382
15.150994
12.17645736
10.08499579
8.874720006
8.142733304
7.700279741
7.430344359
7.263030599
7.157254197
7.088827554
7.04331022
7.011950994
6.982961997
6.957389441
6.937347475
6.920557504
6.908248438
6.902459442
6.902962251
6.907058368
6.911751777
6.915168803
6.916686917
6.909223916
6.89537447
6.884791732
6.884002957
6.891601563
6.90273601
6.913748316
6.923144458
6.930772655
6.945358957
6.966745668
7.002729042
7.073332248
7.20969912
7.462511657
7.917214818
8.729425973
10.24427295
13.54498859
39.27432398
37.16636847
34.73592155
31.96843262
28.8733647
25.49787213
21.94033382
18.3585528
14.9660729
12.00985669
9.952912674
8.777029323
8.075458607
7.657756107
7.407145077
7.254688509
7.160347621
7.100829195
7.06239116
7.036803292
7.014455996
6.996401556
6.983395844
6.973104391
6.966169968
6.964025282
6.966473696
6.971502659
6.97691557
6.981348923
6.985032606
6.981945671
6.973416007
6.967825123
6.969679902
6.976748717
6.984915418
6.991732866
6.996623859
6.999927731
7.006038802
7.013650109
7.035208785
7.089778483
7.207486556
7.438530383
7.868900969
8.655979689
10.14736666
13.42901802
39.47195984
37.30404948
34.80381008
31.95868818
28.78283233
25.33111338
21.71185567
18.09289469
14.6952342
11.7688207
9.764521332
8.639894602
7.982984539
7.601187749
7.378332131
7.247041988
7.168881641
7.121887701
7.09333468
7.075739542
7.062495563
7.054592572
7.050927195
7.049155291
7.049265872
7.052009266
7.057253599
7.063812885
7.070446084
7.076405399
7.083068849
7.08567775
7.083745751
7.08361411
7.087380657
7.092431308
7.096001919
7.097185786
7.096388168
7.094397152
7.090218387
7.081131167
7.084401763
7.117455817
7.208876962
7.408074199
7.801775664
8.550127119
10.0049104
13.25686613
39.72222567
37.48049545
34.89414919
31.95341114
28.67868537
25.13477575
21.44225906
17.78067484
14.37915074
11.49044494
9.550357277
8.487238206
7.88325461
7.543529952
7.352883545
7.245963281
7.186310347
7.153555361
7.136167827
7.127532208
7.124397586
7.127539676
7.133803742
7.140929122
7.148400061
7.156426708
7.164974213
7.173605814
7.181945483
7.189827997
7.199933452
7.208662227
7.213090107
7.217094927
7.22098069
7.222608967
7.220867785
7.216242018
7.209871183
7.20281149
7.188795218
7.163505282
7.148061652
7.15779906
7.219297048
7.380722569
7.72938993
8.428860569
9.836746611
13.0507849
40.02795149
37.69832527
35.00923466
31.95470501
28.56329571
24.91218733
21.13641263
17.42841762
14.025556
11.1829188
9.318291028
8.326166223
7.782375357
7.489858244
7.334944357
7.254815099
7.215358925
7.198041681
7.192679731
7.193621213
7.201192993
7.215784998
7.232087001
7.248028207
7.26279491
7.276253542
7.288495132
7.299698093
7.310197537
7.320341227
7.334209349
7.34910439
7.359081844
7.36553269
7.367904563
7.365238426
7.358070376
7.347962426
7.336513005
7.324894119
7.301978298
7.26162385
7.227830802
7.213481103
7.242577875
7.361274676
7.656873542
8.296712643
9.646156768
12.81298675
40.3923877
37.96022657
35.15102656
31.96397695
28.43811802
24.6656933
20.79820432
17.04163903
13.64113125
10.85343797
9.075339969
8.163070265
7.685840641
7.444721694
7.328216317
7.276596791
7.258463617
7.257335182
7.264500692
7.275345616
7.293890121
7.319980236
7.346122985
7.370536775
7.392315967
7.411177206
7.427360108
7.441513746
7.454515494
7.467135534
7.484862321
7.505502467
7.51983604
7.527156755
7.526933378
7.519730944
7.507500279
7.492538652
7.476683543
7.461124342
7.430430845
7.376443774
7.325213901
7.286904844
7.282305182
7.354470526
7.589504039
8.158314428
9.436088633
12.54484082
40.81891415
38.2686878
35.32092031
31.98179521
28.30368672
24.39680015
20.43077734
16.62510256
13.23174287
10.50841499
8.827834894
8.003729867
7.59857617
7.41214989
7.335943499
7.313917844
7.317737215
7.333162502
7.353055504
7.373891883
7.403415855
7.440802814
7.476414208
7.508837786
7.537244659
7.561359264
7.581584856
7.598914765
7.614615686
7.629783635
7.651229307
7.676792753
7.694154874
7.701152051
7.697865784
7.686380379
7.669730096
7.650662504
7.631110206
7.612231368
7.57488899
7.508803066
7.441438647
7.38008781
7.34170402
7.364926453
7.532800411
8.018673116
9.209459404
12.24707111
41.31087951
38.62582184
35.51957082
32.00777618
28.15962524
24.10630038
20.03670468
16.18298492
12.80259217
10.15362759
8.581548342
7.853391428
7.524977189
7.395669391
7.360919879
7.369001073
7.394968875
7.426984445
7.459554508
7.490277911
7.530586688
7.57889772
7.623514168
7.663448084
7.698065648
7.727209786
7.751454664
7.772040697
7.790499812
7.808161916
7.833008344
7.862460043
7.881613153
7.887532285
7.881185122
7.865950208
7.845616821
7.823180223
7.80058898
7.778955481
7.73600666
7.659346707
7.577411866
7.49460008
7.42352737
7.397012781
7.492531456
7.883414587
8.969457515
11.91989541
41.87153302
39.03324567
35.74674525
32.04049371
28.0046745
23.79439244
19.61811975
15.71897766
12.35830866
9.794330873
8.34179734
7.716827709
7.46893966
7.398326949
7.405512518
7.443706326
7.491647057
7.540016784
7.585010554
7.625363352
7.676105926
7.734850838
7.787965449
7.834913842
7.875327571
7.909235377
7.937383054
7.961189184
7.982358007
8.002374737
8.030211521
8.062505888
8.082442228
8.086896865
8.077761049
8.059399383
8.036085036
8.010931758
7.985868314
7.961964767
7.914323331
7.828535633
7.733736978
7.631551467
7.52996503
7.454685995
7.474623677
7.758980647
8.719878193
11.56312741
42.86545615
39.77540338
36.18524303
32.14836512
27.79565653
23.32565364
18.97824163
15.01075282
11.68827922
9.269333535
8.0143521
7.554715648
7.431544457
7.449330129
7.518408233
7.600428415
7.680037528
7.751803702
7.814450714
7.868381621
7.933715436
8.006893287
8.071675893
8.128186001
8.176485655
8.216923476
8.250492056
8.278802546
8.303710764
8.32682598
8.358250965
8.393063699
8.412923866
8.415128914
8.402672016
8.380810418
8.354187823
8.325979532
8.29808067
8.271525379
8.218310736
8.121405014
8.010810753
7.884583424
7.743931654
7.602451718
7.510886591
7.621883033
8.359447407
11.0026136
44.48584866
40.93925257
36.81128628
32.22027919
27.376934
22.54141475
17.98066609
13.9539002
10.72557697
8.559079149
7.621226583
7.410457852
7.46450047
7.60271164
7.753787532
7.89283836
8.013179473
8.1147996
8.199824615
8.270828477
8.354309005
8.445257142
8.524333514
8.592478065
8.650359486
8.698802821
8.739115076
8.773071745
8.802602124
8.829351907
8.864521541
8.900696274
8.919051021
8.91820035
8.902272253
8.877069744
8.847346689
8.81623297
8.785572204
8.756376562
8.697511396
8.589086557
8.462287441
8.311668744
8.130526007
7.915152078
7.682178737
7.53207592
7.861566473
10.08311957
46.58373105
42.40530928
37.54281609
32.24044652
26.8218852
21.60040741
16.84254079
12.79039007
9.710321701
7.881465838
7.331413772
7.398725876
7.636563086
7.893699259
8.123377424
8.316131296
8.474420019
8.603687101
8.7093911
8.796181275
8.896450756
9.003652468
9.095755184
9.174440656
9.240964168
9.296617318
9.343001561
9.382021148
9.415627782
9.445443389
9.483452652
9.519786571
9.536185458
9.532750391
9.514315988
9.486811635
9.454923385
9.421713447
9.389001948
9.357810179
9.294643978
9.177574715
9.039450648
8.873338474
8.667904153
8.405878759
8.067369166
7.667604601
7.470570065
8.978573138
49.30598372
44.20232925
38.31046593
32.11161348
26.05479441
20.45734824
15.53880011
11.50940894
8.657046757
7.290468433
7.208814002
7.574100186
7.993593219
8.363041637
8.665157288
8.906754947
9.099314146
9.253465566
9.377787297
9.478877511
9.594582143
9.716659253
9.820587869
9.908766531
9.983028135
10.04510556
10.09687358
10.140355
10.17751703
10.20994941
10.25026129
10.28640702
10.301014
10.29551466
10.27519199
10.24595254
10.21238331
10.17749872
10.14312177
10.11030103
10.04365256
9.919869405
9.773986691
9.59954427
9.384868413
9.107633419
8.723738711
8.158530568
7.408909856
7.703173931
52.89657442
46.31802302
38.95640382
31.67664037
24.96869006
19.04279987
14.01861243
10.0803189
7.589073704
6.876148813
7.343448527
8.010699131
8.600775244
9.072009936
9.438729707
9.723584997
9.946408765
10.12250934
10.26323205
10.37688733
10.50614197
10.64167068
10.75624313
10.85292152
10.93408329
11.00186121
11.05837933
11.10577879
11.14605532
11.18078243
11.22313534
11.25923206
11.27247691
11.2653752
11.24353037
11.21281977
11.17776839
11.1413787
11.10549903
11.07121591
11.00149153
10.87203261
10.72040641
10.54196844
10.32843472
10.06249531
9.700687563
9.125621251
8.049216443
6.546451624
57.80791548
48.59501971
39.1625959
30.69519004
23.40333795
17.23150848
12.17270584
8.438922956
6.577386455
6.806566184
7.876164166
8.828697346
9.571034695
10.1313654
10.55433621
10.8768614
11.1260943
11.32139149
11.4764801
11.60114829
11.74231525
11.88982465
12.01393346
12.11824627
12.20560465
12.27848513
12.33923542
12.39011887
12.43318122
12.4700059
12.51433713
12.55077792
12.56317938
12.55485635
12.5316848
12.49957342
12.46305169
12.42515206
12.38776819
12.35203123
12.27929331
12.14439898
11.9875507
11.80637098
11.59786995
11.35706277
11.06736723
10.65573639
9.790604269
7.030570687
64.97831478
50.44411562
38.35581538
28.80088707
21.08017149
14.76352919
9.763781032
6.503826563
5.911255255
7.41780183
9.068449063
10.26746064
11.13836651
11.77397094
12.24478402
12.59959527
12.87162597
13.08359791
13.2512297
13.38555565
13.53722813
13.69535521
13.82799363
13.93918397
14.03214172
14.1096272
14.17418607
14.22820784
14.27381079
14.31261518
14.3589638
14.39622462
14.40829352
14.39905963
14.37466283
14.34112521
14.30305367
14.26355184
14.22457639
14.18730789
14.1114243
13.97084638
13.80830011
13.62332369
13.41792816
13.20091981
12.99593646
12.85269775
12.82700976
12.29843334
76.53738286
50.21499621
35.63409231
25.39736107
17.4454736
11.07393278
6.331958499
4.670640241
6.626690126
9.397981655
11.49033448
12.8729356
13.8414794
14.53551346
15.04415924
15.42488626
15.71543779
15.94108984
16.1190969
16.26146659
16.42194989
16.58901602
16.72890754
16.8460012
16.94379116
17.02525508
17.09310323
17.14984694
17.19769043
17.23830938
17.28664498
17.32510987
17.33728523
17.32742122
17.30191378
17.26696672
17.22732267
17.18618729
17.1455917
17.10676811
17.02771322
16.88133933
16.71254827
16.52194669
16.31457495
16.10845249
15.95871087
16.04266431
17.08501694
25.5567968
80.15938264
53.93804904
39.3121351
28.97579277
20.85014506
14.12872257
8.460895553
3.782561836
1.804224529
4.480449861
6.704677537
8.158893654
9.170166487
9.891526658
10.41863585
10.81239236
11.11247281
11.34530533
11.5288569
11.67558921
11.84091362
12.01293552
12.15687254
12.27725429
12.37770828
12.4613234
12.5309068
12.58905869
12.6380635
12.67966101
12.72917492
12.76865355
12.78118883
12.7710945
12.74494974
12.70914902
12.66857086
12.62650171
12.58501625
12.54537019
12.46466248
12.31557134
12.14423868
11.95193284
11.74519391
11.54565671
11.41832812
11.57389471
12.91102947
23.66382238
66.27879845
51.78728391
39.67550406
30.04749234
22.19532606
15.64284019
10.16979813
5.850618776
3.60707881
4.633789967
6.380697573
7.666099089
8.59393499
9.267320173
9.764115035
10.13743782
10.42307861
10.6453337
10.82091579
10.96150177
11.12012057
11.28531706
11.42374091
11.53966058
11.63647148
11.71708328
11.78417428
11.84025762
11.88756455
11.92780667
11.975904
12.01464838
12.02723239
12.0176563
11.9923183
11.95750383
11.91800999
11.87705696
11.83666672
11.79805562
11.71938633
11.57377505
11.40568016
11.21497719
11.0045457
10.78540813
10.58745759
10.48393366
10.68099295
11.94192479
58.23181825
49.02874126
39.57596764
31.05780637
23.67722586
17.35595278
12.03298618
7.811310251
5.207158387
5.012780415
6.110058647
7.139994141
7.94111855
8.542450559
8.994260402
9.337575803
9.602194747
9.809161074
9.973294662
10.10510042
10.25419688
10.40970305
10.54037636
10.65008552
10.74186164
10.8183405
10.88201608
10.93529089
10.98033991
11.01885145
11.06525774
11.10347509
11.11650753
11.10779179
11.08349845
11.04984139
11.01157423
10.97186941
10.93270146
10.89524736
10.81888751
10.67709585
10.51198751
10.32092015
10.10051349
9.845058015
9.536352548
9.099747306
8.235243577
5.845813561
52.98664132
46.40317282
39.02199689
31.70488853
24.93583672
18.91226668
13.72791177
9.52276116
6.640223475
5.616830631
6.052100967
6.771293722
7.411919377
7.921523425
8.316311396
8.621832555
8.860137949
9.04806452
9.197994397
9.318941925
9.456327783
9.599966875
9.721247018
9.823488005
9.909237736
9.980778607
10.04037892
10.09032001
10.1327285
10.16928356
10.21390367
10.25196154
10.26593106
10.25842968
10.23536022
10.20292185
10.16588425
10.12740898
10.08944092
10.05312434
9.979076662
9.841024941
9.678442696
9.485615694
9.252191505
8.956308526
8.542986718
7.861636702
6.500989761
3.466412847
49.26155654
44.1468286
38.23612844
32.00795292
25.90694706
20.24239095
15.21942631
11.02660992
7.941397163
6.354301633
6.209282874
6.597974574
7.05452622
7.456179221
7.783360088
8.044042605
8.251178552
8.41658102
8.549691951
8.657733768
8.781196155
8.911115433
9.021572022
9.115209383
9.194016117
9.25986118
9.314753475
9.360845454
9.400222528
9.434566474
9.477245461
9.515406075
9.530772039
9.524891697
9.503313802
9.472242359
9.436509273
9.399303342
9.362563308
9.327413113
9.25578682
9.121694679
8.962008037
8.768301499
8.525028655
8.201443962
7.732765191
6.984945836
5.728529993
3.903026895
46.47975474
42.28740711
37.40657869
32.07980785
26.62772511
21.35803945
16.52816856
12.36790469
9.137184112
7.151247375
6.530419593
6.599395369
6.860525707
7.142530583
7.393336604
7.602949427
7.774463049
7.914067206
8.027822265
8.120811419
8.227654523
8.342828147
8.441234579
8.525142654
8.596051356
8.655397787
8.704905727
8.746583689
8.782465602
8.814226166
8.854571656
8.892681965
8.909684946
8.905892897
8.886300925
8.857012713
8.822908207
8.787228045
8.751933978
8.71815169
8.649418232
8.520281717
8.365389359
8.174992335
7.932259525
7.608334231
7.156380631
6.521230563
5.72219752
5.113280725
44.35162631
40.78906734
36.64281499
32.03061083
27.16107324
22.29001769
17.67771757
13.57547822
10.24373992
7.963731573
6.960279752
6.738641617
6.804950006
6.961199442
7.129444147
7.283028646
7.415163874
7.526169348
7.618549495
7.695260081
7.785121497
7.88446732
7.969675634
8.042762248
8.104824109
8.156885008
8.200364992
8.237089192
8.268989236
8.297678427
8.334934648
8.372049935
8.390402134
8.38917959
8.372433962
8.345801497
8.314063832
8.280507306
8.247155007
8.215172076
8.15022602
8.027898355
7.881222471
7.701257763
7.474603984
7.184064811
6.817163112
6.405837945
6.116399206
6.249804581
42.71217844
39.60349857
35.99444793
31.93890113
27.56610766
23.07033337
18.6855567
14.66340331
11.26664801
8.764021299
7.45298572
6.977207036
6.858916461
6.889308017
6.97212844
7.066594778
7.156716076
7.237059171
7.306539719
7.365854205
7.437348024
7.519230702
7.589915044
7.650987264
7.703191933
7.747201231
7.784112213
7.815463393
7.842942379
7.867953421
7.900831154
7.934570241
7.952810738
7.954442073
7.941945706
7.919619957
7.891719992
7.861492838
7.831065013
7.801703893
7.742145337
7.629615086
7.496110439
7.335813602
7.142628089
6.916154111
6.6790772
6.521758824
6.645231875
7.20576574
41.33435885
38.61391689
35.45996225
31.88790219
27.96961139
23.84152956
19.69830128
15.77610207
12.33512003
9.640201735
8.050722137
7.331341322
7.023900171
6.918256386
6.905289642
6.931861964
6.972996555
7.017264515
7.059662448
7.098271544
7.147585077
7.207619838
7.259938062
7.305600448
7.345159726
7.379112357
7.40816584
7.433250965
7.455405603
7.475445252
7.501076562
7.525610649
7.539448009
7.543808419
7.53853284
7.524430153
7.504020335
7.480177222
7.455170632
7.430498255
7.380227572
7.283989194
7.172781436
7.046568336
6.909671699
6.780037894
6.7081598
6.810535728
7.26665665
8.112349662
40.34636587
37.8794639
35.02787148
31.79129528
28.21069104
24.3814018
20.45834058
16.65026204
13.20464454
10.38306319
8.591165951
7.684757011
7.223799635
7.002346734
6.904870234
6.870013264
6.866011513