/*--------------------------------*- C++ -*----------------------------------*\
  =========                 |
  \\      /  F ield         | OpenFOAM: The Open Source CFD Toolbox
   \\    /   O peration     | Website:  https://openfoam.org
    \\  /    A nd           | Version:  13
     \\/     M anipulation  |
\*---------------------------------------------------------------------------*/
FoamFile
{
    format      ascii;
    class       volScalarField;
    location    "0";
    object      p;
}
// * * * * * * * * * * * * * * * * * * * * * * * * * * * * * * * * * * * * * //

dimensions      [0 2 -2 0 0 0 0];

internalField   nonuniform List<scalar> 
291769
(
-75.17964553
435.8248535
334.6498814
231.0593649
165.7255533
119.4809147
89.19487818
211.7984735
422.2600285
703.795883
983.8630081
1177.838867
1320.218731
1428.627453
1513.642199
1581.742027
1637.125398
1682.667377
1720.430175
1751.94814
1788.769646
1829.099555
1864.156879
1894.11633
1919.101018
1939.200878
1954.481379
1964.982198
1970.708712
1971.621413
1965.998455
1943.592328
1911.901417
1874.907942
1835.586931
1796.037757
1757.658109
1721.325608
1687.54835
1656.57688
1595.491948
1491.020139
1378.385101
1257.964183
1129.867862
993.9524031
849.8382695
697.1899248
538.3819259
478.5315272
-543.8080812
-607.5494197
-185.303739
36.6155565
156.0628834
214.934753
235.0477673
287.5565889
439.0327409
703.7273861
982.0711076
1177.015067
1320.389826
1429.542987
1515.097707
1583.596088
1639.281374
1685.057838
1723.006592
1754.674167
1791.665803
1832.175374
1867.385785
1897.47557
1922.570485
1942.763114
1958.122039
1968.69042
1974.476927
1975.444404
1969.892726
1947.55682
1915.896145
1878.896136
1839.544572
1799.953147
1761.527669
1725.150161
1691.330849
1660.321228
1599.161326
1494.57075
1381.816304
1261.27035
1133.022509
996.849249
852.0955546
697.6088008
534.1456971
389.6400244
618.298267
-66.84844762
31.23347224
163.0450505
263.9441906
328.4636588
363.9339671
399.5722663
486.2043518
700.6204647
965.6915184
1160.193525
1305.002197
1415.54822
1502.207101
1571.554638
1627.897294
1674.190767
1712.552895
1744.555078
1781.925396
1822.838066
1858.393766
1888.779161
1914.125453
1934.53028
1950.068274
1960.789917
1966.711643
1967.802944
1962.416135
1940.264036
1908.717279
1871.760293
1832.401192
1792.774586
1754.302563
1717.876491
1684.011317
1652.960765
1591.722873
1487.02607
1374.189211
1253.570416
1125.196234
988.6335639
842.5747762
683.624903
501.6588212
249.1802565
1088.858
432.6214151
364.8322848
387.0572672
434.0950588
475.3040482
502.2918228
523.8419969
569.1051768
718.2892693
950.1904435
1137.196268
1281.208197
1392.432158
1479.975935
1550.128056
1607.148323
1654.003083
1692.830738
1725.220321
1763.035739
1804.432075
1840.412276
1871.169237
1896.836786
1917.515626
1933.286379
1944.208908
1950.311063
1951.573077
1946.424143
1924.570621
1893.237861
1856.395536
1817.076374
1777.447867
1738.956258
1702.506567
1668.620302
1637.554028
1576.294458
1471.623812
1358.890407
1238.436157
1110.213607
973.5877725
826.8274655
666.0269052
482.6090276
223.2709653
1322.095616
791.1597355
676.1081984
629.8626506
625.9565732
636.572767
646.2305799
652.7638371
670.9697648
762.9665858
947.9538822
1118.176633
1257.393852
1367.699094
1455.489788
1526.200178
1583.819903
1631.23308
1670.557915
1703.38207
1741.712846
1783.682676
1820.183959
1851.409945
1877.490624
1898.525334
1914.599663
1925.785468
1932.127295
1933.622245
1928.809792
1907.412463
1876.429202
1839.792032
1800.564116
1760.961727
1722.468258
1686.009859
1652.117995
1621.05329
1559.814742
1455.293176
1342.867573
1222.900137
1095.370228
959.7710381
815.037083
659.9539006
490.763996
234.1560673
1447.249483
1043.834341
934.6671664
860.4368619
821.6336068
803.8703326
793.250347
783.2545876
780.4954363
828.4545654
963.445223
1108.771573
1238.096869
1344.953871
1431.785117
1502.478041
1560.425435
1608.276701
1648.055971
1681.311895
1720.178829
1762.786934
1799.89513
1831.686494
1858.276085
1879.753438
1896.205862
1907.719739
1914.363159
1916.158849
1911.797355
1891.055164
1860.600956
1824.290013
1785.218994
1745.673963
1707.194311
1670.738713
1636.854028
1605.807036
1544.633303
1440.408327
1328.571297
1209.595555
1083.700824
951.0044774
811.9863768
667.7670859
508.4230111
239.8631933
1522.39758
1227.277619
1140.731544
1064.001837
1007.78279
969.0082391
939.3828765
912.6470225
891.6065974
906.1424712
995.6528604
1111.710126
1226.349505
1326.707507
1410.877418
1480.62875
1538.402083
1586.419287
1626.508221
1660.123754
1699.484774
1742.754823
1780.532629
1812.974042
1840.163426
1862.167166
1879.067698
1890.967769
1897.967573
1900.127571
1896.336017
1876.483635
1846.790814
1810.972532
1772.151344
1732.70675
1694.259548
1657.81776
1623.952378
1592.940014
1531.880226
1428.133702
1317.258598
1199.962898
1076.918149
949.0951951
818.0377718
683.3443586
523.1444767
240.8508928
1575.575752
1367.300476
1304.256629
1236.817179
1176.20442
1124.972357
1080.152471
1038.022755
1000.511621
988.9751766
1040.537734
1127.039307
1223.786267
1314.777256
1394.369338
1462.002932
1518.895898
1566.656092
1606.8022
1640.629567
1680.368177
1724.265813
1762.741822
1795.898154
1823.766903
1846.371716
1863.778755
1876.107278
1883.499505
1886.069188
1882.948486
1864.233179
1835.586411
1800.490163
1762.060042
1722.786438
1684.402176
1647.988626
1614.154738
1583.193563
1522.297342
1419.229159
1309.737931
1194.857707
1075.742622
953.854486
830.1631989
699.6610787
532.0005203
240.1233856
1629.812622
1496.315635
1454.702378
1401.630864
1344.622053
1287.406333
1230.595552
1173.682975
1119.410833
1083.772822
1100.599423
1156.328019
1231.444058
1309.468279
1381.887832
1445.726662
1500.70091
1547.574209
1587.403279
1621.229111
1661.18657
1705.6871
1744.947219
1778.968436
1807.689517
1831.054009
1849.089098
1861.929664
1869.777656
1872.8274
1870.52834
1853.347658
1826.256439
1792.344031
1754.621607
1715.693644
1677.453742
1641.103828
1607.32201
1576.434197
1515.76636
1413.666187
1306.170126
1194.672696
1080.605009
965.0699401
846.6733602
715.103683
537.2559618
238.8535778
1677.628545
1595.190123
1565.677331
1523.181462
1471.770298
1414.002921
1351.274398
1284.775215
1218.330917
1165.739846
1158.792465
1191.274685
1247.735021
1313.057139
1377.599523
1436.790807
1489.11048
1534.523335
1573.603868
1607.107718
1646.957285
1691.799099
1731.699852
1766.525778
1796.088515
1820.214828
1838.861234
1852.163088
1860.385746
1863.818596
1862.204722
1846.505481
1821.174957
1788.853106
1752.260843
1713.992308
1676.085191
1639.895497
1606.207878
1575.407091
1514.965653
1413.819718
1308.304614
1199.965661
1089.97209
978.2634269
860.9598771
725.1654769
539.3340429
237.7103129
1711.483499
1657.15698
1633.697371
1597.161498
1549.667975
1492.662863
1427.414213
1355.754471
1282.176656
1219.712135
1199.317767
1218.064926
1262.651557
1319.239833
1377.970991
1433.506463
1483.59995
1527.6927
1566.019195
1599.123526
1638.717626
1683.648698
1723.913838
1759.27104
1789.428839
1814.112028
1833.20268
1846.818157
1855.264749
1858.905834
1857.669514
1842.912151
1818.874712
1787.914551
1752.445023
1714.932525
1677.464508
1641.510452
1607.953936
1577.242939
1516.97462
1416.444666
1312.205203
1205.789257
1097.951907
987.6512934
869.6226311
730.3207284
539.9628675
236.9737892
1736.044489
1697.954073
1677.575555
1644.3766
1599.350877
1543.166423
1476.786535
1402.221756
1324.297894
1255.726357
1227.169053
1237.433371
1274.384088
1325.089879
1379.73169
1432.589633
1480.988892
1524.034612
1561.731034
1594.473664
1633.799431
1678.709248
1719.17288
1754.870782
1785.43834
1810.522342
1829.937658
1843.773723
1852.359311
1856.11237
1855.07701
1840.89823
1817.747249
1787.829684
1753.31756
1716.51998
1679.508424
1643.81856
1610.411122
1579.790669
1519.660558
1419.501338
1316.026157
1210.714701
1103.962477
994.0581012
875.0191874
733.2490337
540.1999236
236.5149905
1753.79513
1725.616056
1706.890699
1675.627116
1632.139124
1576.578371
1509.633472
1433.331217
1352.654675
1280.150689
1246.387734
1251.198255
1283.12333
1329.845252
1381.639035
1432.58353
1479.742118
1522.001455
1559.210235
1591.660886
1630.754976
1675.605987
1716.175844
1752.091665
1782.939835
1808.310837
1827.964017
1841.95902
1850.635352
1854.450419
1853.523201
1839.704386
1817.150066
1787.9877
1754.224563
1718.029146
1681.429129
1645.991
1612.729514
1582.194415
1522.178069
1422.239461
1319.212321
1214.527957
1108.314997
998.4271887
878.5022025
735.0408144
540.3056077
236.2211548
1766.59727
1744.747026
1726.957447
1696.86515
1654.354966
1599.234885
1531.981145
1454.58619
1372.105578
1296.987738
1259.781586
1260.969014
1289.507155
1333.494492
1383.297055
1432.880652
1479.14248
1520.824014
1557.667708
1589.89421
1628.803667
1673.590706
1714.217458
1750.274633
1781.316261
1806.892789
1826.719954
1840.830494
1849.568182
1853.418759
1852.551029
1838.961986
1816.811283
1788.184594
1754.982494
1719.263531
1683.005038
1647.78461
1614.652607
1584.192713
1524.269998
1424.465309
1321.702193
1217.377854
1111.432805
1001.437958
880.8198313
736.194502
540.3585218
236.0266488
1775.856109
1758.191628
1740.960619
1711.607989
1669.73745
1614.92491
1547.489686
1469.379365
1385.681686
1308.780345
1269.230497
1267.945461
1294.150877
1336.23168
1384.628598
1433.240222
1478.854491
1520.114169
1556.688022
1588.746227
1627.513913
1672.243982
1712.901632
1749.052532
1780.229196
1805.953473
1825.907761
1840.102515
1848.882556
1852.754012
1851.91965
1838.481155
1816.607381
1788.360073
1755.570741
1720.216661
1684.22885
1649.186125
1616.162035
1585.765041
1525.918131
1426.197487
1323.592978
1219.479954
1113.668014
1003.54079
882.4011669
736.964738
540.3869995
235.8940563
1782.595098
1767.774606
1750.896478
1722.029622
1680.589858
1625.993701
1558.445818
1479.851876
1395.312715
1317.16701
1275.983796
1272.972935
1297.540015
1338.270561
1385.663314
1433.574882
1478.719154
1519.670312
1556.045186
1587.978019
1626.638628
1671.321834
1711.996614
1748.211159
1779.48332
1805.314536
1825.361986
1839.618298
1848.42801
1852.312023
1851.496721
1838.159343
1816.478812
1788.502315
1756.015559
1720.936796
1685.158564
1650.256147
1617.318618
1586.972364
1527.18565
1427.519559
1325.012704
1221.026968
1115.280505
1005.030177
883.50295
737.4931474
540.4029712
235.801582
1792.424224
1781.486539
1765.081531
1736.87087
1696.024448
1641.737134
1574.046245
1494.786406
1409.065931
1329.159397
1285.668289
1280.220046
1302.466724
1341.275415
1387.231032
1434.135437
1478.600275
1519.103417
1555.188012
1586.936958
1625.439247
1670.049802
1710.744487
1747.046842
1778.45446
1804.439912
1824.623022
1838.968864
1847.820608
1851.720543
1850.92832
1837.730185
1816.322647
1788.734138
1756.688572
1722.019427
1686.559016
1651.872266
1619.068946
1588.801364
1529.107403
1429.513213
1327.128877
1223.300215
1117.61731
1007.162638
885.0657541
738.2393172
540.4282577
235.6733656
1803.296166
1796.293219
1780.249766
1752.641297
1712.364791
1658.38903
1590.56966
1510.645846
1423.711719
1341.972077
1296.080702
1288.093217
1307.903853
1344.673332
1389.086922
1434.8992
1478.620114
1518.628187
1554.388953
1585.930374
1624.250852
1668.770972
1709.477001
1745.866848
1777.418041
1803.572631
1823.907317
1838.353072
1847.248968
1851.160694
1850.381774
1837.317444
1816.193288
1789.022426
1757.467227
1723.271946
1688.194363
1653.776359
1621.144106
1590.97841
1531.404731
1431.879089
1329.588971
1225.872758
1120.192158
1009.458622
886.7193722
739.0233947
540.4623028
235.5450345
1810.643052
1806.139047
1790.301795
1763.056232
1723.127941
1669.348457
1601.453895
1521.112154
1433.398254
1350.469929
1303.021674
1293.383636
1311.600704
1347.024988
1390.412552
1435.49224
1478.710373
1518.381409
1553.91998
1585.317579
1623.510237
1667.962745
1708.670155
1745.113918
1776.758861
1803.027247
1823.465406
1837.979001
1846.903051
1850.81896
1850.041186
1837.054737
1816.111885
1789.219276
1757.99842
1724.13507
1689.333838
1655.115278
1622.612893
1592.525314
1533.044793
1433.562481
1331.315039
1227.642501
1121.927981
1010.97836
887.796895
739.5271667
540.4813183
235.4615748
1814.311109
1810.995193
1795.29503
1768.230294
1728.469972
1674.787676
1606.86057
1526.318404
1438.223839
1354.71103
1306.496601
1296.045372
1313.474628
1348.230734
1391.106111
1435.818371
1478.783251
1518.283831
1553.709537
1585.033655
1623.16043
1667.576812
1708.282798
1744.751785
1776.442407
1802.767269
1823.257096
1837.804068
1846.740909
1850.657014
1849.876559
1836.925026
1816.070546
1789.317733
1758.26659
1724.573861
1689.916985
1655.804345
1623.371997
1593.327094
1533.897464
1434.436735
1332.204098
1228.54319
1122.800676
1011.734213
888.3279645
739.7734322
540.4897374
235.4204083
1814.298201
1810.982049
1795.281966
1768.220598
1728.466782
1674.79194
1606.870735
1526.331747
1438.238138
1354.725085
1306.509734
1296.057633
1313.486349
1348.242204
1391.117481
1435.829725
1478.794678
1518.29542
1553.721337
1585.045642
1623.172497
1667.588701
1708.294181
1744.762265
1776.45153
1802.774632
1823.262409
1837.807203
1846.741963
1850.65638
1849.874615
1836.92386
1816.071104
1789.319919
1758.269463
1724.576547
1689.919108
1655.805934
1623.373221
1593.328119
1533.898258
1434.436923
1332.203105
1228.541078
1122.798142
1011.731958
888.3263221
739.772368
540.489078
235.4201675
1810.605622
1806.098417
1790.260364
1763.026097
1723.118861
1669.362509
1601.485566
1521.152875
1433.441339
1350.511829
1303.060379
1293.419489
1311.634931
1347.058608
1390.446043
1435.525829
1478.744289
1518.415905
1553.955217
1585.353506
1623.546566
1667.998704
1708.704701
1745.145826
1776.786746
1803.049876
1823.481885
1837.98897
1846.906809
1850.817698
1850.0361
1837.052089
1816.114337
1789.226256
1758.006877
1724.142501
1689.339298
1655.118942
1622.61531
1592.52701
1533.045628
1433.561373
1331.310579
1227.635069
1121.919656
1010.971241
887.7920111
739.5242588
540.4795778
235.4609202
1803.240167
1796.217602
1780.171313
1752.587512
1712.351837
1658.417144
1590.62668
1510.716149
1423.784075
1342.040598
1296.142148
1288.149024
1307.957074
1344.726262
1389.140458
1434.953576
1478.675523
1518.684933
1554.447303
1585.990307
1624.312031
1668.832091
1709.536099
1745.921737
1777.466393
1803.612305
1823.936784
1838.371801
1847.257483
1851.160991
1850.375968
1837.31591
1816.199994
1789.03525
1757.48066
1723.282163
1688.200334
1653.778633
1621.143758
1590.976451
1531.400864
1431.871778
1329.576833
1225.856961
1120.176219
1009.446039
886.7118676
739.0200649
540.4607282
235.5443569
1792.373378
1781.343505
1764.942301
1736.784514
1696.008111
1641.783042
1574.131732
1494.88754
1409.166578
1329.250031
1285.743857
1280.285304
1302.529391
1341.340546
1387.300057
1434.208112
1478.676164
1519.182405
1555.270214
1587.022343
1625.527733
1670.139435
1710.832014
1747.128889
1778.527548
1804.500965
1824.669987
1839.001072
1847.838878
1851.727688
1850.927424
1837.735334
1816.338177
1788.754837
1756.706085
1722.028998
1686.560246
1651.866582
1619.058514
1588.78793
1529.090325
1429.491396
1327.102139
1223.271232
1117.591464
1007.145223
885.0591889
738.2409968
540.4315408
235.6741366
1776.29872
1758.733343
1741.673859
1712.515869
1670.819827
1616.118337
1548.710859
1470.554903
1386.761461
1309.718161
1269.977182
1268.497484
1294.531827
1336.481967
1384.787395
1433.337997
1478.912759
1520.14765
1556.706767
1588.757031
1627.519009
1672.246175
1712.902495
1749.05222
1780.22592
1805.944224
1825.888707
1840.069884
1848.83496
1852.693689
1851.851373
1838.429384
1816.583448
1788.360871
1755.58644
1720.237012
1684.24753
1649.200969
1616.17353
1585.774664
1525.925493
1426.206946
1323.614177
1219.522389
1113.734473
1003.619997
882.467722
736.9930893
540.3736314
235.8775891
1754.203372
1726.499619
1708.083375
1677.125355
1633.860916
1578.396901
1511.424997
1435.014339
1354.195506
1281.516548
1247.505247
1252.037625
1283.699906
1330.211453
1381.85316
1432.693317
1479.781918
1521.994784
1559.173057
1591.60411
1630.68079
1675.520763
1716.085808
1752.000781
1782.849407
1808.219008
1827.866044
1841.849059
1850.509424
1854.308962
1853.369734
1839.568081
1817.04825
1787.92141
1754.186129
1718.008791
1681.419311
1645.987616
1612.730983
1582.200248
1522.189934
1422.260869
1319.253675
1214.599763
1108.417378
998.5394491
878.5832774
735.0535723
540.2558854
236.1843072
1730.227242
1689.533786
1668.997777
1635.47661
1590.121286
1533.760209
1467.489231
1393.38126
1316.267707
1248.916818
1221.940549
1233.800231
1272.178939
1323.992585
1379.411709
1432.781744
1481.505305
1524.750332
1562.565151
1595.374262
1634.747568
1679.65558
1720.072998
1755.695073
1786.170637
1811.161018
1830.494472
1844.266981
1852.804557
1856.517055
1855.425821
1841.136879
1817.820891
1787.696254
1752.981989
1716.026722
1678.912097
1643.163019
1609.724059
1579.086688
1518.931985
1418.705156
1315.088689
1209.578447
1102.646542
992.7086568
873.9003996
732.6124674
540.0769206
236.5648625
1705.511594
1648.753439
1625.129789
1588.178207
1540.237929
1482.973482
1417.813498
1346.649618
1273.971121
1212.87725
1194.242322
1214.698409
1260.747542
1318.424077
1377.89079
1433.894427
1484.274263
1528.536003
1566.957431
1600.110388
1639.733641
1684.648912
1724.861759
1760.143198
1790.214015
1814.811462
1833.827314
1847.382081
1855.778384
1859.372976
1858.069973
1843.193326
1818.997067
1787.858285
1752.2321
1714.610179
1677.078206
1641.09119
1607.518258
1576.797538
1516.509568
1415.901125
1311.49936
1204.847813
1096.767073
986.3436086
868.4606455
729.606825
539.7918493
237.0154444
1680.882135
1604.744692
1576.859885
1535.559872
1484.652363
1426.675806
1363.208605
1295.705524
1228.174308
1174.235706
1165.274759
1195.553267
1250.07942
1313.992485
1377.611081
1436.228092
1488.200307
1533.407151
1572.369215
1605.809394
1645.617392
1690.47283
1730.430452
1765.337564
1794.987758
1819.190607
1837.890865
1851.222074
1859.458199
1862.9038
1861.33104
1845.78377
1820.669691
1788.56731
1752.149164
1713.995322
1676.154519
1640.000891
1606.333856
1575.547389
1515.132079
1414.078194
1308.761008
1200.732733
1091.110423
979.6837646
862.3212941
725.955994
539.3373244
237.5304253
1656.866366
1557.771896
1524.26152
1477.728634
1423.686053
1365.45092
1304.437884
1241.362763
1179.649933
1133.738121
1135.829987
1177.102635
1240.740683
1311.067733
1378.78468
1439.886742
1493.318863
1539.357399
1578.769486
1612.42656
1652.344701
1697.074397
1736.736089
1771.249472
1800.476565
1824.291605
1842.681531
1855.784252
1863.842736
1867.111858
1865.22082
1848.949029
1822.926993
1789.956662
1752.886233
1714.329324
1676.271671
1640.006906
1606.274769
1575.434741
1514.895825
1413.361392
1307.057519
1197.493689
1085.991708
973.0024813
855.577277
721.5700517
538.6262579
238.1011101
1633.735519
1507.775006
1467.134893
1414.641337
1357.617918
1299.880023
1242.242003
1184.374852
1129.087298
1092.05648
1106.641941
1160.001884
1233.185885
1309.903475
1381.5214
1444.891796
1499.600984
1546.330521
1586.088183
1619.885876
1659.83773
1704.382101
1743.71822
1777.830801
1806.642442
1830.082306
1848.169648
1861.040887
1868.908023
1871.979989
1869.737539
1852.722803
1825.842405
1792.120744
1754.531855
1715.679619
1677.474989
1641.138293
1607.360637
1576.475493
1515.817534
1413.797023
1306.494742
1195.325587
1081.700135
966.6085357
848.3841416
716.3651974
537.5439911
238.7162212
1611.474402
1454.071678
1404.696294
1345.804289
1286.445523
1230.399452
1177.285915
1125.434371
1077.105035
1049.799723
1078.391638
1144.821848
1227.758847
1310.646829
1385.845066
1451.200905
1506.972087
1554.237912
1594.232068
1628.094266
1668.006996
1712.315552
1751.306813
1785.020931
1813.431598
1836.512767
1854.307582
1866.947338
1874.614665
1877.477159
1874.867624
1857.125337
1829.462867
1795.108277
1757.115517
1718.050596
1679.748319
1643.365758
1609.555458
1578.631628
1517.86173
1415.375021
1307.114215
1194.357694
1078.484644
960.8349825
840.9746643
710.2841008
535.9462645
239.3673642
1578.553831
1369.131795
1305.746668
1238.005798
1177.041229
1125.469613
1080.406497
1038.124143
1000.448677
988.6046504
1039.877988
1126.402476
1223.343281
1314.54317
1394.299248
1462.047323
1519.016932
1566.828254
1607.008971
1640.859991
1680.620007
1724.527859
1763.00392
1796.153324
1824.009829
1846.598553
1863.987156
1876.296306
1883.669556
1886.221892
1883.079773
1864.342489
1835.676278
1800.562773
1762.118913
1722.83441
1684.440426
1648.017182
1614.173399
1583.202549
1522.287152
1419.183748
1309.650688
1194.731526
1075.607735
953.7921403
830.2966022
700.0299561
532.3756339
240.2453426
1523.899394
1228.307354
1141.677992
1064.865181
1008.516797
969.5606755
939.746813
912.8463669
891.6441912
906.0060264
995.4081857
1111.484456
1226.207265
1326.659075
1410.907838
1480.717621
1538.531786
1586.576671
1626.683784
1660.310431
1699.678985
1742.948802
1780.719855
1813.15002
1840.32505
1862.312417
1879.195439
1891.077616
1898.059862
1900.203295
1896.389792
1876.513561
1846.801712
1810.969251
1772.138223
1732.686206
1694.232118
1657.783133
1623.910299
1592.890738
1531.817479
1428.047987
1317.147989
1199.832284
1076.786932
949.0030124
818.0329137
683.4344527
523.2395918
240.875303
1448.113347
1044.393409
935.2319583
861.0093823
822.1812529
804.3358137
793.5927673
783.4591466
780.5577104
828.4221407
963.3883786
1108.730741
1238.096376
1345.003163
1431.880494
1502.610036
1560.584076
1608.453564
1648.244435
1681.50693
1720.377481
1762.982694
1800.082906
1831.862804
1858.438615
1879.90077
1896.337265
1907.835059
1914.462695
1916.243235
1911.860733
1891.095147
1860.623524
1824.300689
1785.221575
1745.669996
1707.183835
1670.721332
1636.829635
1605.776041
1544.590654
1440.347523
1328.492575
1209.503844
1083.609011
950.9340768
811.9603542
667.7910832
508.4596535
239.8721687
1322.541471
791.3731588
676.3656749
630.1830298
626.3176784
636.9198333
646.5106045
652.9399275
671.0322054
763.0014115
947.9997808
1118.226669
1257.460519
1367.793867
1455.614248
1526.349764
1583.988212
1631.414093
1670.746725
1703.574977
1741.90746
1783.873434
1820.366492
1851.581225
1877.648714
1898.669153
1914.728768
1925.899899
1932.227365
1933.708373
1928.876007
1907.456283
1876.456848
1839.808787
1800.573135
1760.964072
1722.463872
1685.998511
1652.099797
1621.028817
1559.779676
1455.2428
1342.802963
1222.825463
1095.29416
959.70636
814.9970627
659.9462705
490.7807905
234.1684616
1088.956412
432.5437732
364.8333178
387.1673273
434.2927564
475.5351657
502.4991739
523.9760818
569.1636783
718.377963
950.2905179
1137.287492
1281.305131
1392.548019
1480.114146
1550.285891
1607.320898
1654.18555
1693.019115
1725.411645
1763.22801
1804.620428
1840.592744
1871.338968
1896.993972
1917.659328
1933.416298
1944.325173
1950.413976
1951.6629
1946.494956
1924.619973
1893.271875
1856.419052
1817.092021
1777.456458
1738.957779
1702.500986
1668.607948
1637.535621
1576.265983
1471.581512
1358.835618
1238.37217
1110.14628
973.5250211
826.7775367
665.9970325
482.6060821
223.2854442
618.0358578
-67.20432304
31.01816011
162.9876282
264.010159
328.5955282
364.0725113
399.6613294
486.2709027
700.7465991
965.8103657
1160.297153
1305.109328
1415.671788
1502.350369
1571.715226
1628.070844
1674.372948
1712.74018
1744.744858
1782.115913
1823.024898
1858.573146
1888.94827
1914.282479
1934.674292
1950.199005
1960.907498
1966.816333
1967.894906
1962.489589
1940.316637
1908.754992
1871.787602
1832.420411
1792.786444
1754.30717
1717.874016
1684.002269
1652.946
1591.698367
1486.988558
1374.140061
1253.512233
1125.133139
988.5707354
842.5176227
683.5789192
501.6311017
249.1814108
-544.5936206
-608.1610766
-185.6592111
36.46261058
156.0523945
215.0030249
235.1325337
287.6068653
439.1208656
703.862133
982.1852536
1177.115805
1320.49625
1429.666296
1515.240258
1583.755287
1639.452961
1685.237667
1723.191315
1754.861301
1791.853706
1832.359847
1867.56309
1897.642816
1922.725762
1942.905412
1958.251032
1968.806188
1974.57968
1975.53426
1969.964065
1947.607469
1915.932028
1878.921588
1839.561823
1799.963005
1761.530402
1725.146119
1691.320679
1660.305864
1599.13661
1494.533567
1381.767952
1261.21304
1132.959478
996.7843739
852.0328895
697.5527593
534.1027834
389.6253146
-75.28757711
435.9654084
334.7951508
231.1871189
165.8293884
119.5534865
89.23058564
211.8279481
422.3540523
703.9209761
983.9685081
1177.935075
1320.322892
1428.749281
1513.783367
1581.899732
1637.29537
1682.845527
1720.61321
1752.133605
1788.95593
1829.282531
1864.332818
1894.282329
1919.255155
1939.342139
1954.609444
1965.097156
1970.810765
1971.710661
1966.069332
1943.642693
1911.937096
1874.933125
1835.603747
1796.047015
1757.660143
1721.32085
1687.537512
1656.56093
1595.466647
1490.982421
1378.336277
1257.906376
1129.804108
993.8862825
849.773542
697.1307535
538.3351549
478.5135753
-165.9796072
307.8025487
219.5921245
142.1898514
104.6623614
85.96509032
79.72242511
108.2473235
342.2488781
610.7654507
892.9264398
1085.010283
1225.8289
1333.258194
1417.661248
1485.362444
1540.472856
1585.819248
1623.436601
1654.843245
1691.541114
1731.746342
1766.702129
1796.578984
1821.496768
1841.542587
1856.779559
1867.245807
1872.946312
1873.842558
1868.213397
1845.861347
1814.276949
1777.424828
1738.263488
1698.880568
1660.666382
1624.494123
1590.869303
1560.041105
1499.246829
1395.316907
1283.32959
1163.689153
1036.547404
901.8413271
759.4163039
609.6773624
455.1856192
365.874839
-460.6359653
-690.7469868
-298.0120402
-70.03679372
66.3815599
147.9768012
197.7456746
257.3886753
404.4736918
632.1443696
898.0509143
1085.943469
1225.373223
1332.265048
1416.444367
1484.05378
1539.132834
1584.476893
1622.105967
1653.530822
1690.258059
1730.503618
1765.501704
1795.420051
1820.376361
1840.456815
1855.724874
1866.2199
1871.948322
1872.872451
1867.282294
1844.973411
1813.40506
1776.54262
1737.3548
1697.938988
1659.691405
1623.487996
1589.835251
1558.982505
1498.141172
1394.146456
1282.10153
1162.407431
1035.204735
900.3869425
757.6253499
606.6046681
449.508345
301.3992975
836.8197043
-20.19498959
15.97038078
123.8869836
216.7925799
282.720824
329.2863558
383.3734745
487.7400777
670.2730343
907.6122085
1086.723958
1223.182718
1328.976292
1412.74347
1480.219373
1535.285512
1580.669932
1618.361832
1649.856989
1686.682808
1727.053252
1762.175277
1792.211315
1817.274855
1837.450405
1852.802544
1863.373873
1869.174694
1870.169948
1864.678773
1842.483008
1810.966998
1774.096226
1734.861539
1695.382334
1657.068566
1620.802782
1587.093972
1556.192027
1495.256912
1391.137652
1278.988412
1159.202688
1031.893009
896.8509037
753.3737702
599.6625917
430.8520133
209.0351433
1285.915257
492.8959814
368.8956549
364.6856436
399.3695487
437.4365114
470.7432569
510.6883552
582.6222713
722.3444238
923.2929246
1088.043697
1218.853271
1322.278265
1404.995525
1471.999977
1526.867768
1572.189869
1609.88928
1641.427306
1678.335684
1718.829784
1754.090506
1784.268543
1809.467131
1829.765425
1845.228104
1855.902188
1861.804177
1862.903654
1857.564848
1835.563182
1804.153506
1767.293657
1728.007745
1688.450593
1650.054398
1613.712104
1579.93628
1548.977272
1487.936657
1383.702945
1271.481907
1151.643514
1024.2291
888.8158051
744.047235
586.0618006
402.7267445
149.6729682
1479.740183
842.8822651
682.5020685
613.0961215
596.9720428
603.3885084
617.4544319
640.0113305
685.3549712
785.9238665
947.5876742
1093.107769
1215.190828
1314.593848
1395.376118
1461.420969
1515.813626
1560.914575
1598.53204
1630.066661
1667.030959
1707.627449
1743.035646
1773.381051
1798.746341
1819.1994
1834.803309
1845.611255
1851.649584
1852.895979
1847.781516
1826.090134
1794.868602
1758.051604
1718.710718
1679.055664
1640.553694
1604.114067
1570.254723
1539.226368
1478.061272
1373.721117
1261.468309
1141.639317
1014.186882
878.4608217
732.5269952
571.0860602
379.6197108
129.5487763
1567.537312
1082.431907
937.9819461
845.0476158
795.6776129
773.8863978
766.7636816
770.4858331
792.4772956
858.40892
981.5252374
1104.537741
1214.930116
1308.438838
1386.194806
1450.64795
1504.194864
1548.855115
1586.260441
1617.714745
1654.667469
1695.332382
1730.89373
1761.434549
1787.002962
1807.647186
1823.426283
1834.402348
1840.617226
1842.062486
1837.265857
1816.044162
1785.129025
1748.403519
1709.003748
1669.222002
1630.579568
1594.011112
1560.042937
1528.926139
1467.60645
1363.162965
1250.936214
1131.240638
1003.977681
868.3836739
722.255461
559.6874344
366.3818054
123.6803702
1610.852679
1253.366989
1139.711914
1048.409461
983.6397516
941.4915383
914.8949154
899.9734137
900.7543302
936.6545048
1024.36496
1123.528549
1219.895838
1305.672345
1379.199023
1441.312963
1493.553948
1537.488901
1574.504108
1605.764367
1642.607634
1683.304172
1719.023259
1749.788564
1775.598315
1796.47033
1812.456569
1823.632222
1830.062959
1831.763265
1827.397669
1806.851461
1776.408282
1739.849701
1700.392534
1660.448295
1621.619195
1584.878941
1550.767284
1519.536414
1458.022911
1353.478394
1241.368605
1122.019369
995.3492556
860.599632
715.4503819
553.5932905
360.9500023
122.6743851
1637.919114
1382.929884
1299.227266
1220.609944
1153.32993
1099.513639
1057.479773
1025.630204
1007.203821
1017.298868
1074.029448
1149.830976
1230.854036
1307.404203
1375.551642
1434.540713
1484.960523
1527.836647
1564.247034
1595.177332
1631.795725
1672.477458
1708.356312
1739.37544
1765.46459
1786.597401
1802.814997
1814.211799
1820.888889
1822.896421
1819.081869
1799.455408
1769.704861
1733.431073
1693.936753
1653.794881
1614.724293
1577.757675
1543.4568
1512.077283
1450.31659
1345.66652
1233.786565
1115.049088
989.4233753
856.1346929
712.5809456
551.789821
359.4688493
122.7148292
1668.973007
1502.92384
1446.319869
1385.020312
1323.0634
1264.064128
1209.875274
1161.859352
1124.05874
1108.877263
1135.502416
1186.647076
1249.905626
1314.892683
1375.869301
1430.48884
1478.259424
1519.537684
1554.998923
1585.385781
1621.602076
1662.199736
1698.261602
1729.60738
1756.059819
1777.521389
1794.016098
1805.670454
1812.64312
1815.042385
1811.972701
1793.678555
1765.027854
1729.294459
1689.843079
1649.465863
1610.063038
1572.768642
1538.187401
1506.585804
1444.456754
1339.649934
1228.139105
1110.356799
986.271579
854.8940185
712.9767849
552.6436659
359.5610757
122.9903858
1700.50428
1595.918584
1555.398448
1506.689353
1451.525772
1392.549396
1332.299661
1273.631412
1221.63223
1187.894912
1192.807689
1224.911263
1273.127066
1327.43135
1381.282662
1431.298104