/*--------------------------------*- C++ -*----------------------------------*\
  =========                 |
  \\      /  F ield         | OpenFOAM: The Open Source CFD Toolbox
   \\    /   O peration     | Website:  https://openfoam.org
    \\  /    A nd           | Version:  13
     \\/     M anipulation  |
\*---------------------------------------------------------------------------*/
FoamFile
{
    format      ascii;
    class       volScalarField;
    location    "0";
    object      p;
}
// * * * * * * * * * * * * * * * * * * * * * * * * * * * * * * * * * * * * * //

dimensions      [0 2 -2 0 0 0 0];

internalField   nonuniform List<scalar> 
270627
(
-68.31631817
445.5773891
-476.8927199
-159.4930983
349.5652879
-575.0520843
313.6980343
669.6164074
-383.1856298
-160.1209682
242.6507611
-163.0469407
231.2095897
-15.3016795
-650.3792669
328.5177766
1126.190142
885.7239839
-402.5377384
-163.3460864
174.3304609
55.22102006
151.2412865
68.04537849
-270.3615157
232.111859
487.184885
32.6063943
-711.3587115
345.6223908
1351.147211
1316.229588
1002.870734
-450.5449469
-168.7414688
125.9687948
172.1841308
111.4853484
191.5468969
-47.89478519
145.3163235
412.8169002
54.84375483
-341.9727097
242.0011276
842.3602275
545.0727116
69.8157578
-764.5616384
355.2202092
1473.158077
1500.92499
1455.703421
1055.072677
-491.0289598
-168.0801142
94.26833087
229.3744355
91.44040025
288.1213614
84.63412915
103.3382588
426.7019317
154.1895344
-116.8100829
148.7457116
728.1791269
416.5989291
48.22499468
-393.5980329
248.5388529
1091.498746
890.5597392
613.3029513
81.78636458
-803.5510626
358.0076336
1549.100759
1586.032076
1625.014663
1548.074966
1080.600319
-491.0639883
-165.4271984
214.8401547
248.3172252
84.56275894
350.2042089
163.4921006
82.43267511
467.7638123
242.2624151
24.15617655
102.7644017
677.2752564
404.7975972
126.1408279
-166.1601312
151.4094572
986.8886134
733.3182671
436.1775499
37.29941928
-428.8336578
250.3246534
1273.2069
1126.545386
958.5477991
661.8795667
84.39049843
-804.5607655
358.3784522
1605.993996
1631.079558
1684.594997
1723.328047
1611.367087
1097.907727
-478.4707454
-163.0840599
424.5167575
297.4106754
114.2311469
384.101487
211.4465601
72.86522224
505.119659
305.2751633
112.6311282
79.13635715
667.8774835
433.6653292
204.7805442
-21.19819632
102.4320753
911.9176972
660.3430064
394.3980049
100.95674
-200.1886916
151.7981761
1192.056893
988.698965
758.1497138
452.54552
27.72888869
-431.9362397
250.3442566
1413.560991
1296.19272
1182.551367
1018.698581
695.5699962
95.11089093
-793.9042936
358.1992039
1666.757732
1663.025459
1704.509795
1771.503601
1802.971474
1642.365258
1109.36614
-466.7657326
-159.28052
708.7334398
444.5643282
345.0466459
416.9645436
269.9279446
76.96679089
529.4757171
349.9412529
167.2254604
66.67582446
673.9659136
467.8443413
263.5376491
72.02939109
76.46992033
869.5622309
639.1864191
405.5450209
171.848707
-54.5726353
101.4516175
1117.066585
896.123807
655.3013927
386.4920277
81.60098788
-206.6575114
151.4140054
1355.22498
1189.65917
1009.23588
785.8815643
465.3947968
32.23448879
-424.8497437
250.0133352
1544.950789
1426.731756
1337.631469
1239.129915
1068.885179
716.9265158
106.0524268
-783.8845582
357.658332
1721.963534
1702.055761
1715.210207
1774.388369
1851.655517
1843.026118
1655.367086
1116.831578
-447.5500556
-151.2334184
995.1386431
709.569354
616.0412349
498.4110405
412.8303559
122.2980315
548.1965861
402.007515
211.5173969
62.65580123
680.1197956
498.4191133
304.5883444
129.8468218
61.81106031
847.6160784
641.2357106
428.5994856
226.4738288
39.44093656
74.22991077
1059.426787
843.7593877
614.148974
381.1642681
144.933512
-64.79336277
100.5550462
1290.412836
1101.062066
890.2973026
655.6117441
380.9545043
79.06985206
-203.4020715
150.963208
1506.554675
1349.13098
1202.681507
1036.967538
812.1889679
477.3603153
39.85112489
-417.7880548
249.3026382
1647.505137
1549.897578
1454.833277
1384.095265
1293.142422
1097.67421
728.882274
114.1783313
-767.3740245
355.6971045
1761.345383
1742.299368
1735.58053
1768.764146
1846.810435
1896.300076
1858.191341
1661.613178
1127.525193
-406.5110798
-140.5455912
1194.18614
993.4266528
904.7659783
709.1143646
640.1022441
469.3131063
588.9856587
502.1840699
289.1609162
71.90146785
683.4638347
535.567615
344.6126608
167.8256877
54.30542678
833.1302301
651.7816341
451.0417438
263.673561
97.57514527
58.37105054
1017.50488
818.0242181
602.4439759
392.9858837
193.8519893
25.69381612
72.8025538
1229.856292
1035.411502
818.7621746
593.6464994
360.5578737
135.2209107
-65.30356832
99.88725027
1455.814433
1273.922071
1091.944348
891.6642085
658.928647
382.5223329
82.21350674
-199.2766732
150.1737062
1619.792008
1497.534945
1354.532666
1224.646605
1067.323467
829.4510242
485.5334614
45.99527001
-405.9839874
247.2024016
1712.494788
1647.263551
1565.824251
1490.01298
1434.126143
1325.647886
1110.797307
735.8998054
126.5333963
-731.8824837
352.3885657
1789.828666
1773.583221
1763.781966
1774.505704
1831.630054
1893.54881
1913.992404
1864.554968
1668.988379
1145.294692
-352.1224395
-127.0555706
1340.668274
1193.292217
1102.003689
977.1840194
910.8054976
809.2862915
732.2507119
682.3543917
519.6045763
133.3567335
697.7762352
603.3347234
418.0590358
209.4106328
54.27167511
819.6266957
670.941625
479.4346532
293.0940881
132.4749477
49.40909736
984.21359
807.0416448
603.2087554
406.3371235
225.8746549
80.73354124
56.42543147
1176.641461
990.3670894
778.9583508
566.5151972
360.3615679
177.4498339
21.77604229
71.8869256
1399.525146
1207.155077
1009.171265
798.4759854
576.782532
351.5699731
133.5201988
-63.95045803
98.86303737
1578.680304
1439.128771
1261.002251
1090.32911
897.7400097
663.2588666
385.4877949
85.49924545
-192.0147807
148.2540764
1689.906861
1609.248641
1495.751811
1369.020312
1252.54454
1086.904523
837.9752016
490.7525072
55.61022235
-380.2363059
243.8685688
1755.559265
1709.579519
1655.344653
1589.871919
1533.066603
1467.675768
1339.840886
1117.358913
745.4213842
149.7908206
-684.7350809
347.4047565
1810.324921
1797.434319
1788.883712
1794.135515
1828.945085
1880.420588
1914.528472
1921.65029
1871.166509
1675.535136
1164.624258
-284.0947504
-108.3023304
1452.354503
1340.748577
1246.976335
1175.936752
1103.346236
1014.443752
963.5393272
921.9835177
819.6770227
673.2340037
783.6938136
739.3563676
588.9223118
313.2863578
76.27811181
813.2377301
712.1470938
537.0294522
337.2488791
159.5111755
46.50929803
953.8913037
806.9751909
615.423553
423.1338385
246.9842589
112.3705343
46.88031435
1128.739213
960.1055914
757.9039421
555.2001731
363.3624911
203.4560011
73.96661572
55.2639422
1341.302775
1151.573379
950.8536199
741.6373792
532.7930131
341.464287
171.1259219
20.67437873
70.57322443
1527.681612
1378.220827
1179.368863
987.0217554
781.9543702
567.7465772
348.6328829
133.6745164
-60.90044111
96.81196049
1653.95858
1562.300058
1422.517667
1254.916883
1094.533174
902.6502222
665.7357317
387.8054709
91.02131191
-175.263357
145.4116496
1735.461011
1678.69215
1602.915424
1502.387035
1391.513981
1272.071344
1095.456564
842.4163084
498.1332439
74.48165691
-346.0793759
239.0072217
1784.862293
1751.212337
1713.642315
1672.39953
1625.329984
1566.697371
1483.027479
1346.528177
1125.344306
759.4122844
177.9820852
-625.6865282
339.3463467
1825.053061
1815.124248
1809.374085
1815.425894
1845.302101
1882.062601
1905.983421
1924.741809
1929.854524
1873.102164
1676.949903
1184.084575
-191.5051744
-84.17512512
1539.955525
1453.184847
1357.714498
1324.652311
1246.744942
1160.948491
1153.283492
1104.75629
1017.428753
902.4189592
965.0508015
940.1387001
839.3628583
692.8834675
481.981875
855.7629188
808.2933606
666.1456813
448.7618388
215.4411355
54.80589121
929.3553902
824.8359928
653.114255
460.9322461
271.6101226
133.3129935
42.97590706
1083.229094
941.2920793
751.7344001
556.2041033
368.2076119
218.3303288
103.1999189
45.44939598
1282.190926
1106.435463
910.8503649
707.2971361
507.1694085
335.5016754
193.0710651
70.85892659
53.66044595
1469.10598
1318.360447
1111.713187
911.7394926
705.4237163
510.99704
332.6885232
168.30178
20.0405589
68.27424256
1606.390138
1507.760647
1349.003658
1154.58577
968.1823696
771.4376647
563.3069362
347.482665
134.7022399
-52.18931633
94.06157731
1702.274721
1637.878179
1543.454859
1411.483697
1254.921902
1098.112297
904.1889593
667.001169
391.3319857
102.8461534
-152.7882028
141.4078762
1766.034913
1723.985022
1670.103402
1604.49144
1518.466935
1409.937451
1280.522213
1099.353694
847.9492119
509.9265286
97.71519702
-303.7494974
231.3274805
1805.169692
1779.698378
1753.11313
1727.341583
1703.623828
1659.608061
1583.688265
1490.462563
1354.251209
1133.537772
772.8203255
210.3178969
-545.0063023
326.3030352
1835.674422
1828.070498
1825.123297
1834.180983
1866.46363
1905.152073
1914.556326
1920.057344
1936.914622
1933.555438
1866.618356
1671.29756
1203.243817
-75.86143763
-60.29247291
1610.079515
1541.336175
1444.721533
1438.441615
1356.8638
1272.022777
1300.655974
1244.784823
1161.637847
1055.146817
1135.911456
1107.172077
1023.23855
907.8056064
749.11775
985.5546591
967.8453525
868.1215056
725.7731731
517.1740199
126.7632808
939.1853178
886.1313806
747.3237356
560.9614799
338.1134677
166.1681747
47.67679426
1042.393291
937.988675
768.4191845
581.2866244
386.3271643
233.1240897
121.2563783
41.10139539
1222.364841
1070.888456
886.3363595
690.6679196
494.2205917
331.4684165
204.2845488
98.5079908
43.53314785
1404.501228
1261.808107
1057.418428
858.3467576
654.3852031
473.7944914
321.4482575
187.681868
67.2531595
51.10738302
1548.4367
1448.049352
1278.429965
1070.854338
872.1024782
679.944277
499.5795939
328.0560205
165.0785603
21.94367288
65.46856925
1656.744281
1587.334054
1477.872514
1321.343451
1132.091189
954.8646547
765.0694698
560.7202839
346.2752467
138.8270029
-39.841189
90.42211273
1734.383759
1686.487269
1618.008642
1529.191746
1406.282387
1256.208251
1098.412678
904.3756287
668.4774149
397.537284
117.7053134
-125.1979425
135.2210212
1787.025203
1754.466135
1714.239793
1669.246395
1616.609364
1535.8685
1418.532591
1284.225116
1103.673639
853.8987852
521.9136331
124.4002308
-246.9767425
219.2092573
1819.459109
1799.512722
1780.367117
1765.149379
1757.083528
1740.143318
1679.318203
1592.554675
1499.214621
1360.368207
1137.415852
784.1874691
250.083099
-443.8072925
309.9410886
1843.388045
1837.518841
1836.887507
1849.111829
1886.040662
1932.175817
1945.399538
1934.287221
1938.418795
1948.422868
1928.941808
1850.316348
1653.204445
1212.677226
33.79288042
-38.12566063
1667.041003
1611.868755
1514.456596
1527.696971
1443.606251
1359.087778
1414.924998
1353.626399
1271.772801
1168.418483
1277.485368
1240.882867
1162.619575
1057.153454
916.640627
1129.469364
1114.135136
1032.941741
918.7930816
758.4884488
589.5628064
1023.182024
1005.891836
905.3309238
768.1995691
569.9395717
290.3403161
86.87277699
1026.775594
969.350507
831.2318649
661.1029647
451.5744286
273.4454862
146.1602926
44.40747332
1165.081689
1048.536089
882.4100001
699.1363736
501.9097405
337.5619775
214.5503945
114.9763835
38.67872011
1335.521725
1210.553685
1016.398815
824.0868228
623.1057057
449.9229259
312.5863383
196.7221814
92.62282428
40.71127141
1481.428156
1385.824384
1213.427279
1003.619357
800.975794
615.3150315
455.9751759
313.7008278
180.8455745
63.85578463
48.2346171
1599.393901
1528.510203
1408.460437
1235.953734
1027.528111
842.2610068
665.5753239
493.0221072
322.0756821
162.0992945
26.00779572
62.01561099
1690.061088
1638.293159
1557.260246
1448.398473
1294.513581
1115.290542
946.2264827
760.9095208
557.1061595
345.2323304
144.6824116
-24.63810539
85.04836275
1756.267399
1718.839289
1666.158491
1602.214232
1520.516033
1405.011973
1255.310169
1097.617776
903.9393409
669.1597432
403.7523298
134.4905203
-89.12630705
125.6959548
1801.701603
1775.432114
1744.096085
1712.188565
1679.750628
1634.387497
1545.25708
1422.508346
1288.139205
1105.884215
856.608559
532.5897543
156.9369208
-178.5234096
204.4870581
1829.652984
1813.491331
1799.440426
1791.539736
1794.525234
1795.966781
1763.239974
1690.538557
1603.584269
1506.891811
1360.48788
1135.332297
792.0662636
291.1082996
-347.2685472
290.0685228
1854.613534
1844.440071
1845.583298
1860.476515
1901.927674
1956.255231
1978.199678
1971.060791
1961.604294
1962.676081
1954.52078
1915.916762
1818.425356
1612.405556
1203.924958
130.1153166
-7.812859612
1713.812527
1669.140646
1571.150563
1599.090249
1513.227441
1428.80585
1504.994289
1439.868826
1358.397511
1256.371623
1390.393488
1347.027642
1270.753994
1169.126962
1035.815688
1259.815503
1238.227368
1164.490702
1061.26426
920.3493656
786.9539666
1136.368721
1128.298166
1047.803406
935.8148422
777.0399259
608.5943836
499.0840472
1073.219997
1053.14248
950.1529249
817.3730716
631.1396009
407.7908396
229.5505975
75.03305992
1125.977733
1054.362124
916.7945081
755.1796881
557.3240088
378.2989217
244.4008703
136.3679661
40.46765187
1266.449081
1169.163709
993.2865527
814.2948593
617.0974494
444.8331667
312.985214
204.614837
106.9930178
35.3961501
1407.524685
1324.35155
1156.864004
953.4316768
752.1592154
571.8012071
426.3040956
302.1160899
186.9208627
85.40710675
37.75878369
1531.236693
1463.775824
1338.333073
1158.726261
942.3996445
756.180213
593.5928592
445.7897447
303.4913927
172.0737266
61.7224307
44.94356969
1633.133659
1580.208981
1489.29502
1365.127953
1188.743823
993.073796
824.6894976
656.9509952
484.1154011
313.767612
159.9425445
31.47603034
57.21042735
1712.679672
1672.035791
1608.233096
1526.972011
1418.561002
1273.804964
1104.315195
940.4391453
754.7836395
550.6305941
343.7300177
151.1058088
-5.334103478
77.23108434
1771.488765
1740.911345
1698.304448
1649.639436
1591.96259
1517.942848
1403.16103
1253.783188
1095.613382
899.9115735
666.9983398
408.3745148
153.9120154
-48.08294341
114.5311303
1812.12909
1790.111624
1764.705198
1741.43572
1722.109286
1698.496324
1645.297034
1550.113968
1426.909046
1289.063827
1102.674944
854.1840411
540.6064083
189.2337139
-116.8934065
187.4496935
1844.249394
1823.48276
1812.951937
1810.141485
1820.95355
1835.380149
1821.718233
1777.126381
1705.319261
1615.908333
1508.73011
1353.157218
1123.32153
787.6162396
319.0705676
-261.5630711
256.5920856
1866.986449
1854.591122
1852.007621
1868.971072
1914.131725
1975.434179
2006.357014
2008.080546
2007.504744
2003.808616
1986.018199
1956.555093
1891.849358
1765.070555
1555.296173
1174.665345
243.1956386
22.16083381
1752.53488
1716.15342
1617.729647
1657.033229
1569.877306
1485.461286
1577.170719
1509.310419
1427.89442
1326.464714
1480.514683
1432.049906
1356.459485
1256.468781
1126.341408
1368.567778
1339.86472
1269.109584
1170.428094
1037.611503
916.0546142
1250.663447
1239.698891
1168.583561
1068.13892
928.2306976
792.7993426
709.913453
1156.141986
1150.663444
1068.799101
958.8574504
803.761628
639.8519887
522.4854163
439.8074043
1138.453134
1107.130645
1001.348314
871.3824103
695.8696327
502.8825758
344.3963737
205.0010893
62.78294604
1210.934096
1150.143343
1002.334912
845.8741322
656.9781248
479.5915946
342.7527338
229.5595159
124.2862669
35.74632921
1331.586884
1269.18249
1114.298407
925.5713717
730.4470323
553.3395517
414.8993485
299.551553
191.785923
96.79970628
32.21233459
1454.542702
1396.769037
1271.631307
1093.487855
878.0952574
694.4777534
543.5825187
412.9310616
288.306732
173.750816
79.05054085
34.59918599
1564.352428
1514.244266
1416.966851
1283.347839
1093.893598
892.1239829
730.4915417
580.8830957
432.0787496
288.9841579
163.7096191
60.2423581
40.644017
1656.030601
1614.448709
1541.323699
1445.652282
1315.249756
1149.282702
972.2566928
813.9072086
644.9534489
470.157879
304.7366121
157.5788048
38.23842272
50.72919398
1728.363986
1694.955078
1642.051843
1577.596226
1495.653117
1395.149047
1260.426725
1096.990521
931.8425048
742.9820927
541.467829
340.2183887
157.3315906
14.89185658
68.58675977
1782.263911
1756.274978
1720.283923
1681.436134
1638.703884
1589.086377
1515.903191
1401.197946
1250.731012
1088.175025
890.8002024
659.9566981
409.2534133
170.2335382
-14.15051191
102.2471528
1827.031035
1800.552291
1779.170014
1761.71999
1751.19248
1741.835072
1710.773185
1651.445571
1556.002791
1428.860981
1283.701382
1091.953194
842.4391675
537.2706231
209.2676554
-66.24337966
160.2244394
1860.018588
1837.813718
1822.636926
1823.382506
1839.714824
1863.313613
1863.057198
1837.567099
1796.009497
1725.283288
1623.749859
1503.551724
1333.877646
1092.430346
766.2114386
329.2092649
-154.2600949
186.7002502
1875.333617
1865.884081
1861.486863
1875.29116
1923.298573
1990.007109
2028.372612
2039.127575
2050.875491
2066.944562
2050.423109
2010.713582
1956.675
1856.882531
1706.116216
1487.250206
1097.687946
304.3807618
25.44217612
1784.804198
1755.067033
1656.308278
1704.575517
1616.44622
1531.996147
1635.789205
1565.921767
1484.435493
1383.268865
1553.163774
1500.926721
1425.512363
1326.243435
1197.602728
1457.372641
1422.685942
1353.111658
1256.433043
1127.28916
1010.833925
1352.029711
1334.825931
1267.917825
1172.742716
1041.431639
918.837815
846.1011538
1251.450319
1247.082205
1176.396157
1078.458093
940.7430132
804.9025424
717.3270104
663.7285101
1190.483023
1180.676827
1096.192617
987.5526428
837.0589762
679.1914591
560.9668867
468.9900367
348.3554343
1200.408637
1173.123863
1057.122052
928.8195822
761.7235823
586.0272683
442.226243
314.6363538
177.0373706
48.2608515
1266.561164
1232.0925
1098.015284
933.712142
751.6469013
576.9728345
439.5304563
323.9141905
210.8818651
109.6345489
31.66816167
1374.435615
1333.571009
1214.838487
1046.676805
840.1833413
661.2377483
518.6953088
398.2187909
282.0018163
174.7585962
87.52381449
29.03413033
1485.971799
1444.065359
1344.758144
1208.247565
1015.098747
814.7310398
661.8709038
527.3398613
395.0836225
268.9029225
161.0226039
73.1014954
30.71971828
1586.876591
1547.798468
1467.937127
1361.975947
1216.11109
1037.917123
862.5632221
715.216873
563.549609
411.554051
273.8794426
154.9585985
58.55197412
35.29241452
1671.897504
1637.688599
1575.826994
1497.598031
1394.38642
1272.046062
1124.984129
959.3418871
798.7417465
625.1801749
453.8388544
293.6765036
153.3067077
44.12155851
44.0237712
1739.44122
1710.853133
1665.055403
1611.273524
1545.550397
1470.87684
1380.158184
1251.599549
1086.151646
915.1938416
726.4999633
527.6886683
331.7192405
158.8608672
29.45941038
59.63448397
1797.625334
1767.15646
1735.606656
1703.243046
1670.213222
1635.897225
1587.22081
1513.97872
1397.617841
1241.350089
1074.208214
874.1991764
643.2537659
398.6488801
176.1200367
10.65610959
83.57428985
1842.993787
1815.487213
1789.475483
1776.003456
1771.473412
1771.730034
1755.168213
1717.961555
1659.362166
1561.104803
1424.628848
1269.801349
1067.823047
811.2345603
517.5203801
213.9529142
-8.205208489
109.9857527
1870.507911
1853.359216
1836.555055
1832.904886
1853.131533
1883.185697
1892.350079
1880.272164
1859.389072
1823.756797
1742.7479
1625.951354
1487.460671
1294.682797
1044.796544
725.1250686
314.3860598
-63.34175201
112.886189
1879.502284
1873.601143
1872.118389
1884.659629
1930.137593
2000.876179
2044.923299
2063.113202
2086.204001
2121.732217
2134.550687
2103.775627
2043.398644
1958.453364
1827.124731
1651.031169
1375.975647
880.4185335
171.1726951
-10.83867959
1822.447883
1787.490276
1688.467078
1743.912925
1655.031464
1570.530186
1683.89728
1612.515878
1530.911673
1429.844025
1612.345138
1557.285582
1481.837982
1382.872035
1254.926281
1529.82437
1490.452477
1421.297635
1325.514419
1198.117226
1084.058426
1437.662039
1414.258321
1349.208729
1256.484085
1129.245175
1012.443778
943.985794
1342.5504
1333.79704
1268.656137
1176.722367
1047.749614
924.8639001
849.5382483
805.0908863
1263.393805
1260.978242
1189.018984
1092.767091
957.9566187
823.1208499
732.410613
672.4658774
600.1518121
1229.526058
1221.758822
1129.374528
1021.245286
875.2710643
723.5195165
607.7756622
514.1695976
392.3005096
118.2323606
1243.106031
1233.841783
1123.736875
988.3122377
827.4910909
662.3734507
528.7148587
411.0732446
278.7155232
145.3238657
39.67534622
1303.549735
1285.8161
1179.74394
1030.329831
841.6704065
670.2358928
533.7503991
417.6470656
299.7754887
187.509099
96.92292039
27.97271036
1403.225901
1375.982374
1279.62841
1147.253519
959.6190191
766.3981148
622.4709335
499.0514358
376.2045048
258.0729601
158.6774657
78.77668739
25.36746961
1507.423534
1475.683582
1392.55828
1281.483676
1127.809302
946.0383915
778.0370881
642.8405034
505.4676317
369.2697376
249.4006109
148.150684
66.32133132
26.2483303
1602.505576
1570.619997
1501.854386
1413.020872
1293.448284
1155.80998
1004.225751
844.7752203
694.2082848
536.8037191
389.3247224
257.2001761
143.6591852
55.62114224
30.0998109
1683.096702
1653.79426
1599.267563
1532.105573
1445.589224
1349.037427
1245.096173
1109.805444
941.0884237
773.2099148
601.4564451
433.5717474
277.1433224
144.3847864
46.56972377
37.47585845
1755.209154
1722.083474
1681.028052
1634.225644
1578.86197
1520.075285
1455.054814
1370.335753
1238.624408
1065.407996
892.2724759
703.0354759
504.0899986
312.5038248
153.0803381
37.84875108
46.66327783
1813.983172
1782.674957
1746.471228
1718.478352
1691.906726
1667.576958
1634.275925
1585.484239
1510.535546
1387.49329
1224.679425
1050.939778
843.1757103
607.5755041
374.6149786
170.8129613
34.66712457
53.37577988
1853.5839
1831.525687
1804.234752
1786.203009
1785.80773
1792.636526
1785.833833
1763.111825
1727.443632
1668.308007
1560.627251
1411.651349
1240.564972
1019.30441
761.2193156
479.4217284
199.3435376
25.69819564
63.96857445
1875.687163
1863.786763
1851.697756
1846.620215
1862.810601
1897.413675
1913.178141
1910.503476
1904.10022
1892.385296
1850.342412
1756.088061
1619.376124
1452.512513
1239.59584
978.1641076
631.0033088
186.5048156
-38.63743875
36.38591508
1879.488715
1877.567528
1879.391186
1895.249955
1940.287354
2008.944751
2057.183967
2081.018774
2113.077027
2164.48059
2202.561387
2211.780047
2173.961844
2086.3419
1969.038551
1808.615868
1576.642241
1145.366773
383.644173
7.347825242
1863.56813
1825.309395
1725.987754
1776.679564
1687.205073
1602.646037
1723.706081
1651.154341
1569.417422
1468.363777
1660.996479
1603.783764
1528.215377
1429.347316
1301.699577
1589.241678
1546.246773
1477.172749
1381.765332
1255.20068
1142.291536
1508.886716
1480.218511
1415.948154
1324.362219
1199.110535
1085.11062
1018.617919
1423.005692
1408.562633
1346.099522
1257.13893
1132.550278
1015.943171
945.9885536
905.0334549
1340.677265
1337.8155
1272.652066
1183.115759
1056.963867
934.5517674
856.968492
808.9730959
749.602655
1283.573712
1283.709657
1206.798423
1111.316013
979.5850378
846.7432668
754.4241478
689.7717166
611.211408
502.0958122
1258.83167
1263.557152
1172.436482
1058.973732
916.9128131
770.65818
658.4317116
566.4417889
450.1884252
258.0624466
74.14010293
1272.274518
1275.184151
1184.246369
1057.108665
892.3165656
734.283064
607.69142
497.6549553
371.920195
236.6685622
122.235494
33.55512624
1328.576412
1321.610574
1233.322885
1112.121576
939.1708923
758.9771554
624.6543465
509.5510795
389.1664292
268.533178
166.6801126
85.48135324
24.03392615
1422.947507
1404.501517
1322.338281
1212.078177
1058.790771
881.3011291
724.0116609
600.1494281
472.8890299
345.4891786
234.9501782
143.0156647
69.09293083
21.43635229
1522.343421
1497.26463
1424.532561
1329.401373
1199.89567
1054.426117
905.0880923
756.3633248
617.0263392
473.1541608
342.7005757
229.0922494
132.782365
58.60443811
22.15021262
1613.545992
1586.453961
1524.936741
1447.025658
1343.75912
1230.562431
1118.873576
983.7354729
820.1643721
661.1807297
507.2094898
364.2307966
235.3771284
128.7535524
51.3653683
25.2815095
1699.032947
1665.161753
1615.523049
1555.578377
1479.681181
1398.968844
1320.517917
1228.180703
1088.294456
910.1046248
742.2949337
571.9078787
404.098512
251.8808976
131.6013964
45.73109835
28.37869384
1771.932345
1738.068744
1692.319499
1650.185046
1601.623614
1553.011446
1503.805969
1444.706431
1355.949168
1214.157389
1037.205095
860.3887662
665.2955012
463.8679916
284.428899
140.6505486
42.34770383
28.13670713
1824.800517
1799.218676
1761.978481
1729.297588
1707.104094
1689.44457
1666.173211
1632.725815
1582.337814
1500.731063
1369.64639
1197.491418
1009.731705
787.0847303
556.0674302
337.6632078
149.3663266
36.31696665
30.06752365
1858.848593
1842.203744
1820.114549
1800.83393
1796.070012
1807.439658
1807.292803
1794.307679
1773.699988
1739.12095
1672.045828
1551.356967
1382.499291
1183.70286
949.9823952
690.7160391
398.0119483
113.0335561
28.49375845
16.22623447
1875.67351
1869.057385
1861.850885
1861.605093
1876.782231
1907.685656
1928.082572
1931.97925
1935.690651
1940.515196
1924.756211
1873.247725
1762.491623
1593.905764
1399.708538
1163.829813
842.2696717
357.1465452
-61.31943633
73.52234069
1875.294076
1877.554236
1883.083352
1902.525457
1951.800388
2020.868587
2066.243229
2094.223744
2132.953461
2196.227878
2253.582569
2293.929919
2310.00932
2257.013414
2132.793354
1986.18446
1783.360667
1361.468956
431.2603006
-7.19223725
1899.186253
1866.616583
1766.985518
1814.888491
1724.7523
1640.109754
1756.866162
1683.392051
1601.52216
1500.437779
1701.295898
1642.407207
1566.684185
1467.809586
1340.250752
1638.282725
1592.467126
1523.318922
1428.029715
1301.833938
1189.448202
1567.969948
1535.036049
1471.032344
1379.944851
1255.659005
1143.046931
1077.495071
1491.742272
1471.909335
1410.694781
1323.188346
1200.816439
1087.377547
1019.973736
980.5635979
1413.291785
1406.73558
1345.118299
1259.1212
1137.594086
1021.722435
950.3826438
907.2813574
852.5157045
1347.691301
1348.370833
1280.71312
1192.567883
1069.322872
948.0461255
868.7309074
817.3196197
754.1535721
668.3358535
1301.047824
1310.268916
1232.534245
1133.928906
1005.062697
874.7498957
782.0346931
714.341721
632.0352911
519.6919017
410.3384046
1279.781466
1293.53628
1214.798271
1105.384269
960.660123
819.1039482
710.4124546
621.0445606
511.1081254
355.8433727
193.2942534
56.04253455
1292.326506
1303.33173
1225.26978
1118.207876
964.5644442
802.5895466
681.3137822
577.0707922
457.5482301
323.5963438
202.9648935
104.26605
27.87639093
1345.800742
1345.863959
1269.047417
1165.573576
1020.689809
854.7894419
711.4394122
598.6298091
477.6406299
351.0801468
239.9509697
147.5310398
73.41389029
20.14551932
1436.699251
1424.046101
1351.07466
1254.821933
1122.705312
976.9158357
835.2472481
699.2824675
570.179183
435.6228101
315.2497579
212.0123591
125.2566523
58.9777519
18.00783995
1532.900425
1512.27324
1446.365433
1361.475829
1247.12225
1123.877671
1010.125165
880.6161829
726.7809646
578.2461232
439.3340629
314.5587514
204.4331556
115.1177323
51.12635473
18.50299198
1629.267188
1597.63734
1540.958384
1470.185866
1377.324948
1279.267982
1191.631495
1096.229775
955.2407989
780.9945527
624.1786732
473.4216925
331.2219351
207.3630973
112.8760423
46.01767477
18.80898008
1715.906239
1681.332505
1627.001939
1571.870945
1502.910064
1432.274048
1369.486971
1302.557362
1204.161329
1051.644337
872.4951138
703.8215136
529.4613425
361.7135529
222.3813882
115.9559388
40.60629023
16.60060413
1782.959852
1755.031386
1708.401062
1661.478632
1617.480045
1575.56053
1536.485027
1493.161746
1429.559269
1328.992554
1181.190756
998.4183691
810.3425006
605.4799335
413.4318723
249.3757604
115.0951096
31.00182124
14.98311348
1830.178444
1810.169808
1778.532446
1744.757042
1717.917234
1704.790749
1688.212593
1664.771053
1629.846812
1572.975599
1482.825934
1340.171012
1149.683877
938.3728428
712.8769745
490.065968
268.6358751
83.22860997
23.01105143
15.09544126
1858.834883
1847.541794
1830.694243
1816.623347
1810.817454
1818.050207
1822.491624
1816.137169
1805.657856
1787.189308
1745.62064
1666.491036
1524.993263
1322.366369
1102.673831
856.8665694
557.1127269
198.603195
5.885325102
41.19348021
1870.466065
1869.0443
1866.945816
1871.674583
1892.106476
1922.521698
1938.838407
1947.336053
1958.095302
1974.341941
1976.467488
1953.238425
1889.159788
1747.028144
1544.734244
1319.876388
1003.868229
462.334939
-117.7160612
118.1627864
1866.926257
1873.562387
1883.070104
1906.223745
1959.725614
2034.321886
2079.58217
2103.950712
2147.524712
2219.369403
2290.614503
2353.386423
2407.378787
2417.286909
2330.529536
2172.366237
1990.23618
1537.006047
393.6587943
-46.22626423
1929.487383
1902.393416
1802.504059
1856.616577
1765.790369
1681.039024
1795.529999
1721.033162
1638.984179
1537.825421
1734.887656
1674.672141
1598.785511
1499.850995
1372.268246
1679.00943
1630.969287
1561.676889
1466.373909
1340.300652
1228.105069
1617.084951
1580.73145
1516.74413
1425.828864
1301.980467
1190.03456
1124.918935
1549.72011
1525.247197
1464.559545
1377.728678
1256.462526
1144.650983
1078.517986
1039.844003
1477.773073
1466.643651
1406.817918
1322.646722
1203.561683
1091.166901
1022.948634
982.1035295
929.3070651
1411.962166
1409.621907
1347.237999
1263.186605
1144.756407
1030.090162
957.5845003
912.2228786
855.1133513
776.2257877
1356.266523
1363.910365
1294.750576
1205.405096
1084.857473
965.2037053
884.7729539
830.3836192
763.836409
674.1966265
586.6614749
1314.456228
1330.635532
1260.520084
1163.769083
1033.607899
906.0169075
813.7704493
744.4380213
660.3765656
547.9994271
432.0458934
301.8736402
1294.570175
1314.56882
1244.793342
1149.194528
1011.804306
867.7218748
762.3345777
675.7418932
571.2648397
434.2772067
289.041988
154.0826775
39.8904799
1306.266029
1322.659778
1253.173114
1159.247707
1026.819898
876.7815239
750.5126249
651.0230455
536.8122042
405.4600091
282.2387153
175.0288189
87.1631658
23.04089076
1357.850531
1362.571341
1293.269922
1201.172966
1073.658895
934.466925
805.2007733
683.8839188
563.9430036
433.6879862
315.3334142
213.1389758
127.0121419
61.62208788
16.92819752
1446.447915
1437.676886
1370.775553
1283.588327
1164.846916
1038.580372
927.9588941
808.0409844
665.8455585
526.6884014
398.323072
284.8149221
185.6540262
106.4053359
50.11455256
15.05442913
1547.951584
1522.890794
1461.553251
1383.387274
1278.761513
1169.42806
1077.488761
983.4141317
847.0143163
681.7227414
537.1378465
403.0919413
280.0513366
175.9583785
98.48933376
43.94855743
13.72478424
1645.921486
1613.554494
1552.277861
1486.270602
1400.210344
1311.800252
1239.07133
1167.647239
1064.619486
909.4274666
736.7702499
581.6705489
428.8702709
289.2962437
178.7663237
96.73716495