/*--------------------------------*- C++ -*----------------------------------*\
  =========                 |
  \\      /  F ield         | OpenFOAM: The Open Source CFD Toolbox
   \\    /   O peration     | Website:  https://openfoam.org
    \\  /    A nd           | Version:  12
     \\/     M anipulation  |
\*---------------------------------------------------------------------------*/
FoamFile
{
    format      ascii;
    class       volScalarField;
    location    "0";
    object      p;
}
// * * * * * * * * * * * * * * * * * * * * * * * * * * * * * * * * * * * * * //

dimensions      [0 2 -2 0 0 0 0];

internalField   nonuniform List<scalar> 
76064
(
55.6121
66.6025
79.577
150.514
32.6251
148.976
131.64
56.7644
288.314
188.846
16.7079
94.8985
89.1313
185.814
101.028
168.927
35.3324
341.965
478.189
191.827
9.15198
52.7348
50.7387
123.411
129.991
125.519
212.344
48.9154
173.677
202.111
18.3443
331.734
661.554
539.731
182.729
5.28244
30.9725
30.1037
70.5203
102.725
75.3938
144.306
106.761
168.205
157.4
227.943
2.20269
239.696
207.906
223.781
6.66389
304.683
758.07
700.025
576.661
173.063
3.20293
19.3798
18.8695
42.5062
73.9976
45.916
83.7856
102.517
137.21
97.1399
157.439
84.1221
191.155
197.172
180.555
236.706
-39.4833
266.78
342.753
215.655
237.027
-0.0301137
280.578
813.737
766.935
715.399
598.055
166.517
2.03396
12.764
12.3989
27.2688
52.791
29.2116
51.2156
83.7905
103.486
59.9214
92.5747
96.4162
158.06
164.374
113.756
165.091
61.1855
205.79
259.39
210.92
195.845
241.143
-70.0118
272.402
402.501
391.883
213.433
244.144
-2.20129
265.306
844.029
821.769
721.913
732.197
608.648
164.244
1.3466
8.73969
8.46046
18.3587
38.0522
19.3771
33.2896
65.2954
76.2684
38.3368
57.2279
86.3247
126.128
127.304
70.9737
97.8929
86.6823
172.09
206.328
181.414
125.196
169.059
43.0683
207.777
300.503
301.249
215.634
204.456
242.499
-88.081
271.209
429.582
460.482
416.239
209.518
246.377
-0.0301139
260.166
858.964
860.015
743.465
687.596
745.55
611.799
166.517
0.92476
6.16097
5.94507
12.798
27.7817
13.3037
22.6716
50.0639
56.096
25.4986
37.5707
71.5424
98.0925
95.7967
45.6823
61.0004
84.3045
141.163
162.866
144.008
78.8138
100.705
77.6025
176.696
237.562
240.366
190.771
131.828
170.284
31.8435
205.229
319.913
357.294
324.922
216.445
207.224
241.143
-94.0209
269.118
443.19
491.281
484.961
427.803
207.83
244.144
6.66389
265.306
863.468
881.783
767.888
671.421
670.017
750.543
608.648
173.063
0.655896
4.44001
4.27392
9.149
20.5047
9.38629
15.9575
38.1634
41.4591
17.5274
25.8075
57.3416
75.2768
71.4709
30.4735
40.3381
73.5495
113.01
126.592
110.315
51.0028
63.0386
80.956
148.395
189.186
190.543
154.552
83.46
101.58
71.5189
176.818
254.23
283.722
261.944
195.129
133.99
169.059
28.0748
202.524
328.709
385.298
388.693
336.757
216.389
204.456
236.706
-88.081
268.253
449.825
508.45
511.764
494.939
431.249
209.518
237.027
18.3443
280.578
858.964
888.805
784.943
675.184
627.114
664.903
745.55
598.055
182.729
0.479407
3.25621
3.12944
6.66456
15.2666
6.76564
11.4977
29.0383
30.8298
12.3696
18.2968
45.1552
57.417
53.3048
20.971
27.8848
61.1207
88.9599
97.3148
83.3242
34.1224
41.8648
73.5129
121.533
149.38
148.836
120.112
54.2091
63.6787
78.2938
151.122
204.728
225.625
209.315
160.205
84.9928
100.705
69.4063
175.814
262.264
308.339
313.035
273.619
196.364
131.828
165.091
31.8434
201.469
332.461
399.773
419.672
404.162
340.327
216.445
195.845
227.943
-70.0118
269.118
451.837
517.798
526.731
517.002
497.665
427.803
213.433
223.781
35.3324
304.683
844.029
881.783
790.902
682.713
614.519
612.571
670.017
732.197
576.661
191.827
0.361554
2.42511
2.32904
4.92821
11.4521
4.96261
8.42894
22.0973
23.0649
8.9141
13.2637
35.1934
43.695
39.8625
14.8011
19.878
49.4269
69.281
74.3424
62.6584
23.5142
29.0525
62.7866
97.5843
116.769
114.892
91.6305
36.3453
42.3493
72.9451
125.846
163.841
177.978
164.513
125.682
55.2766
63.0386
77.3087
151.848
213.01
247.382
250.528
220.025
161.967
83.46
97.8929
71.5189
175.323
265.739
321.566
342.137
328.971
277.287
195.129
125.196
157.439
43.0682
202.524
333.506
406.934
435.9
435.658
408.799
336.757
215.634
180.555
212.344
-39.4833
271.209
449.825
520.815
535.436
528.719
517.796
494.939
416.239
215.655
202.111
56.7644
331.734
813.737
860.015
784.943
685.962
613.864
593.916
627.114
687.596
715.399
539.731
188.846
0.283097
1.83533
1.76307
3.69419
8.65582
3.69793
6.26528
16.8424
17.3595
6.5357
9.77318
27.2645
33.2508
29.9264
10.6619
14.4772
39.2965
53.6002
56.6304
47.1105
16.6031
20.7812
51.7999
77.2622
90.5607
88.0288
69.364
25.0731
29.4269
63.3797
102.526
129.795
139.07
127.564
96.5041
37.0903
41.8648
72.6691
127.729
172.189
197.137
198.293
173.744
127.479
54.2091
61.0003
78.2938
151.948
216.897
259.809
276.383
264.843
223.488
160.205
78.8138
92.5747
77.6025
175.814
266.7
328.039
358.152
360.219
333.997
273.619
190.771
113.756
144.306
61.1855
205.229
332.461
409.126
444.216
451.911
440.263
404.162
324.922
210.92
157.4
185.814
2.20269
272.402
443.19
517.798
538.367
535.889
528.113
517.002
484.961
391.883
207.906
168.927
79.577
341.965
758.07
821.769
767.888
682.713
614.675
590.131
614.519
671.421
721.913
700.025
478.189
150.514
0.233059
1.41731
1.36347
2.81036
6.60403
2.8021
4.7165
12.8825
13.1546
4.86809
7.29546
21.0621
25.3465
22.5736
7.81265
10.7096
30.9052
41.3181
43.1157
35.49
11.9586
15.1798
41.8073
60.5827
69.8668
67.181
52.3793
17.7112
21.0733
52.9444
82.1728
101.888
107.83
98.0355
73.3731
25.5976
29.0525
63.5103
104.985
137.765
155.664
155.254
135.169
98.105
36.3453
40.3381
72.9451
128.243
176.387
208.681
220.773
210.342
176.783
125.682
51.0028
57.2279
80.956
151.848
218.023
266.079
291.475
292.976
269.494
220.025
154.552
70.9737
83.7856
86.6823
176.817
265.739
329.986
366.243
377.448
365.866
328.971
261.944
181.414
97.1399
123.411
84.122
207.777
328.709
406.934
446.826
460.312
456.348
435.658
388.693
301.249
197.172
125.519
148.976
48.9154
266.78
429.582
508.45
535.436
538.398
534.574
528.719
511.764
460.482
342.753
173.677
131.64
55.6121
288.314
661.554
766.935
743.465
675.184
613.864
589.994
613.864
675.184
743.465
766.935
661.554
288.314
55.6121
0.205732
1.12667
1.08747
2.17945
5.10839
2.16901
3.6007
9.91929
10.06
3.68781
5.51147
16.2755
19.3962
17.1316
5.81602
8.02119
24.1507
31.8152
32.8747
26.8288
8.75978
11.2579
33.2597
47.2067
53.7485
51.2046
39.57
12.7571
15.4088
43.1335
65.0855
79.4287
83.1639
74.9618
55.5661
18.0848
20.7812
53.2782
84.7773
109.122
121.896
120.517
104.11
74.704
25.0731
27.8848
63.3797
105.72
141.974
166.095
174.449
165.023
137.698
96.5041
34.1224
37.5707
73.5129
127.729
177.653
214.726
234.545
234.78
214.325
173.744
120.112
45.6823
51.2156
84.3045
151.122
216.897
267.984
299.274
309.496
298.353
264.843
209.315
144.008
59.9214
70.5203
96.4162
176.696
262.264
328.039
368.728
386.232
383.417
360.219
313.035
240.366
164.374
75.3938
94.8985
106.761
205.79
319.913
399.773
444.216
462.976
464.668
451.911
419.672
357.294
259.39
168.205
89.1313
66.6025
101.028
239.696
402.501
491.281
526.731
535.889
536.877
535.889
526.731
491.281
402.501
239.696
101.028
66.6025
150.514
478.189
700.025
721.913
671.421
614.519
590.131
614.675
682.713
767.888
821.769
758.07
341.965
79.577
0.199463
0.936418
0.90929
1.73817
4.03918
1.73158
2.80003
7.72854
7.8016
2.85456
4.2197
12.63
14.9502
13.1169
4.40412
6.07662
18.8276
24.5396
25.1628
20.3898
6.51845
8.45003
26.2217
36.6634
41.327
39.0669
29.9669
9.34316
11.4377
34.5624
51.1333
61.6395
63.9534
57.2013
42.0557
13.0266
15.1798
43.544
67.5692
85.7383
94.8446
93.0024
79.7185
56.631
17.7112
19.878
52.9443
85.5863
113.08
131.039
136.607
128.252
106.143
73.3731
23.5142
25.8074
62.7866
104.985
143.279
171.737
186.663
185.795
168.284
135.169
91.6305
30.4735
33.2896
73.5495
125.846
176.387
216.596
241.876
249.843
239.408
210.342
164.513
110.315
38.3368
42.5062
86.3247
148.395
213.01
266.079
301.68
318.106
315.316
292.976
250.528
190.543
127.304
45.916
52.7348
102.517
172.09
254.23
321.566
366.243
388.949
392.379
377.448
342.137
283.722
206.328
137.21
50.7387
32.6251
129.991
191.155
300.503
385.298
435.9
460.312
467.314
460.312
435.9
385.298
300.503
191.155
129.991
32.6251
131.64
173.677
342.753
460.482
511.764
528.719
534.574
538.398
535.436
508.45
429.582
266.78
48.9154
148.976
188.846
539.731
715.399
687.596
627.114
593.916
613.864
685.962
784.943
860.015
813.737
331.734
56.7644
0.217262
0.832317
0.816661
1.44685
3.31036
1.44909
2.23706
6.1461
6.18838
2.27947
3.28834
9.8985
11.6705
10.1834
3.4083
4.66281
14.7092
19.0328
19.4022
15.6268
4.93428
6.41304
20.5824
28.473
31.847
29.9139
22.8012
6.95096
8.59148
27.4011
39.9773
47.736
49.1549
43.6713
31.8874
9.54019
11.2579
34.977
53.3578
66.9804
73.4915
71.5352
60.883
42.8897
12.7571
14.4772
43.1335
68.3583
89.282
102.644
106.259
99.0362
81.3174
55.5661
16.6031
18.2968
51.7999
84.7773
114.333
136.115
147.156
145.584
130.848
104.11
69.364
20.971
22.6716
61.1207
102.526
141.974
173.512
193.342
199.078
189.583
165.023
127.564
83.3242
25.4986
27.2687
71.5423
121.533
172.189
214.726
244.167
257.915
254.891
234.78
198.293
148.836
95.7967
29.2116
30.9725
83.7905
141.163
204.728
259.809
299.274
320.778
324.175
309.496
276.383
225.625
162.866
103.486
30.1037
16.7079
102.725
158.06
237.562
308.339
358.152
386.232
395.157
386.232
358.152
308.339
237.562
158.06
102.725
16.7079
89.1313
168.205
259.39
357.294
419.672
451.911
464.668
462.976
444.216
399.773
319.913
205.79
106.761
94.8985
168.927
207.906
391.883
484.961
517.002
528.113
535.889
538.367
517.798
443.19
272.402
2.20269
185.814
191.827
576.661
732.197
670.017
612.571
614.519
682.713
790.902
881.783
844.029
304.683
35.3324
0.270601
0.81325
0.811728
1.28319
2.87202
1.30146
1.86163
5.0571
5.09276
1.90812
2.62973
7.90325
9.31001
8.08736
2.72153
3.63939
11.5854
14.929
15.1561
12.1411
3.81764
4.92805
16.1645
22.2019
24.6904
23.0729
17.4884
5.26052
6.52448
21.6014
31.2119
37.0014
37.8679
33.4525
24.2811
7.09704
8.45002
27.7825
41.8914
52.1609
56.848
54.9837
46.5053
32.5335
9.34318
10.7096
34.5624
54.0754
70.0405
79.9993
82.3005
76.2005
62.1236
42.0557
11.9586
13.2637
41.8073
67.5691
90.4199
107.066
115.164
113.263
101.068
79.7185
52.3793
14.8011
15.9575
49.4268
82.1728
113.08
137.736
153.058
156.991
148.599
128.252
98.0355
62.6584
17.5274
18.3587
57.3416
97.5843
137.765
171.737
195.458
206.378
203.222
185.795
155.254
114.892
71.4709
19.3771
19.3798
65.2954
113.01
163.841
208.681
241.876
260.448
263.203
249.843
220.773
177.978
126.592
76.2684
18.8695
9.15198
73.9976
126.128
189.186
247.382
291.475
318.106
326.929
318.106
291.475
247.382
189.186
126.128
73.9976
9.15198
50.7387
137.21
206.328
283.722
342.137
377.448
392.379
388.949
366.243
321.566
254.23
172.09
102.517
52.7348
125.519
197.172
301.249
388.693
435.658
456.348
460.312
446.826
406.934
328.709
207.777
84.1221
123.411
202.111
215.655
416.239
494.939
517.796
528.719
535.436
520.815
449.825
271.209
-39.4833
212.344
182.729
598.055
745.55
664.903
627.114
675.184
784.943
888.805
858.964
280.578
18.3443
0.392964
0.896529
0.919608
1.24153
2.71111
1.28999
1.64417
4.39064
4.44021
1.71281
2.18614
6.51295
7.69653
6.66385
2.27786
2.91221
9.27916
11.9491
12.104
9.64812
3.04784
3.85026
12.7804
17.4844
19.3703
18.03
13.5949
4.06933
5.0162
17.0212
24.4391
28.8208
29.3541
25.8087
18.6329
5.37068
6.41303
21.9346
32.8167
40.6156
44.0268
42.3561
35.6335
24.7798
6.95098
8.02118
27.4011
42.5155
54.7356
62.1892
63.6341
58.5769
47.4617
31.8875
8.75983
9.77317
33.2596
53.3578
71.034
83.7518
89.6772
87.7238
77.7748
60.883
39.57
10.6619
11.4977
39.2965
65.0855
89.282
108.494
120.239
122.848
115.624
99.0362
74.9619
47.1105
12.3696
12.798
45.1552
77.2622
109.122
136.115
154.95
163.395
160.294
145.584
120.517
88.0288
53.3048
13.3037
12.764
50.0639
88.9599
129.795
166.095
193.342
208.697
210.728
199.078
174.449
139.07
97.3148
56.096
12.3989
5.28244
52.791
98.0925
149.38
197.137
234.545
257.915
265.815
257.915
234.545
197.137
149.38
98.0925
52.791
5.28244
30.1037
103.486
162.866
225.625
276.383
309.496
324.175
320.778
299.274
259.809
204.728
141.163
83.7905
30.9725
75.3938
164.374
240.366
313.035
360.219
383.417
386.232
368.728
328.039
262.264
176.696
96.4162
70.5203
157.4
210.92
324.922
404.162
440.263
451.911
444.216
409.126
332.461
205.229
61.1855
144.306
223.781
213.433
427.803
497.665
517.002
526.731
517.798
451.837
269.118
-70.0118
227.943
173.063
608.648
750.543
670.017
671.421
767.888
881.783
863.468
265.306
6.66389
0.691915
1.1364
1.21646
1.3367
2.86378
1.44736
1.57301
4.12006
4.20949
1.69211
1.92194
5.64063
6.72383
5.81465
2.04267
2.41844
7.65257
9.88988
10.0216
7.95285
2.55011
3.08203
10.2604
14.0286
15.5166
14.4059
10.8072
3.24826
3.92048
13.4904
19.3053
22.6903
23.0308
20.1721
14.4894
4.15431
4.92804
17.3034
25.7638
31.7509
34.275
32.8319
27.4962
19.0189
5.26052
6.07661
21.6013
33.3441
42.7439
48.3625
49.2639
45.1254
36.3702
24.2811
6.51848
7.29544
26.2217
41.8914
55.5786
65.3106
69.6583
67.8189
59.7907
46.5053
29.9669
7.81268
8.42893
30.9051
51.1333
70.0405
84.9743
93.9459
95.6361
89.5544
76.2005
57.2013
35.49
8.9141
9.149
35.1933
60.5826
85.7382
107.066
121.882
128.324
125.438
113.263
93.0024
67.181
39.8625
9.38629
8.73969
38.1634
69.2809
101.888
131.039
153.058
165.452
166.867
156.991
136.607
107.83
74.3424
41.4591
8.46046
3.20293
38.0522
75.2768
116.769
155.664
186.663
206.378
213.114
206.378
186.663
155.664
116.769
75.2768
38.0522
3.20293
18.8695
76.2684
126.592
177.978
220.773
249.843
263.203
260.448
241.876
208.681
163.841
113.01
65.2954
19.3798
45.916
127.304
190.543
250.528
292.976
315.316
318.106
301.68
266.079
213.01
148.395
86.3247
42.5062
97.1399
181.414
261.944
328.971
365.866
377.448
366.243
329.986
265.739
176.817
86.6823
83.7856
180.555
215.634
336.757
408.799
435.658
435.9
406.934
333.506
202.524
43.0683
157.439
237.027
209.518
431.249
494.939
511.764
508.45
449.825
268.253
-88.081
236.706
166.517
611.799
745.55
687.596
743.465
860.015
858.964
260.166
-0.0301136
1.5821
1.68562
1.9185
1.61916
3.45225
1.86951
1.65617
4.27294
4.4465
1.88045
1.8201
5.24403
6.35045
5.50642
2.01096
2.11823
6.6084
8.61822
8.76859
6.9366
2.28431
2.55767
8.46556
11.614
12.8613
11.933
8.90882
2.71701
3.13862
10.8464
15.5173
18.2148
18.4547
16.1204
11.5205
3.31589
3.85024
13.7255
20.3913
25.0642
26.9794
25.76
21.4935
14.7912
4.06936
4.66278
17.0212
26.2017
33.4918
37.7757
38.3418
34.9784
28.0663
18.6329
4.93429
5.51145
20.5823
32.8167
43.4452
50.9233
54.1373
52.4959
46.0613
35.6336
22.8012
5.81604
6.26527
24.1507
39.9773
54.7356
66.335
73.1876
74.2646
69.2328
58.5769
43.6713
26.8288
6.53571
6.66455
27.2644
47.2066
66.9803
83.7518
95.3393
100.223
97.6478
87.7237
71.5352
51.2046
29.9264
6.76565
6.16097
29.0383
53.6001
79.4287
102.644
120.239
130.1
131.049
122.848
106.258
83.1639
56.6304
30.8298
5.94507
2.03396
27.7817
57.417
90.5606
121.896
147.156
163.395
168.979
163.395
147.156
121.896
90.5607
57.417
27.7817
2.03396
12.3989
56.096
97.3148
139.07
174.449
199.078
210.728
208.697
193.342
166.095
129.795
88.9599
50.0639
12.764
29.2116
95.7967
148.836
198.293
234.78
254.891
257.915
244.167
214.726
172.189
121.533
71.5424
27.2688
59.9214
144.007
209.315
264.843
298.353
309.496
299.274
267.984
216.897
151.122
84.3045
51.2156
113.756
190.771
273.619
333.997
360.219
358.152
328.039
266.7
175.814
77.6025
92.5747
195.845
216.445
340.327
404.162
419.672
399.773
332.461
201.469
31.8435
165.091
244.144
207.83
427.803
484.961
491.281
443.19
269.118
-94.0209
241.143
164.244
608.648
732.197
721.913
821.769
844.029
265.306
-2.20129
4.9994
3.03058
3.67531
2.22496
4.7792
2.80767
1.93057
4.95997
5.30257
2.37924
1.88254
5.33232
6.60954
5.78262
2.21587
1.99063
6.09191
8.06821
8.28426
6.55304
2.24207
2.23488
7.2933
10.0881
11.2271
10.441
7.76517
2.43185
2.604
8.95133
12.8465
15.0989
15.3036
13.3538
9.49649
2.77326
3.08202
11.041
16.4084
20.151
21.6612
20.6434
17.1775
11.7613
3.2483
3.63935
13.4903
20.7516
26.4833
29.8085
30.1768
27.4443
21.94
14.4894
3.81767
4.21968
16.1645
25.7638
34.0682
39.8601
42.2678
40.8522
35.7041
27.4962
17.4884
4.40413
4.71648
18.8275
31.2118
42.7438
51.7685
57.0207
57.7013
53.5884
45.1254
33.4525
20.3898
4.86809
4.9282
21.0621
36.6634
52.1608
65.3106
74.3474
78.0456
75.821
67.8189
54.9837
39.0669
22.5736
4.96261
4.44
22.0973
41.318
61.6394
79.9992
93.9458
101.722
102.342
95.6361
82.3005
63.9534
43.1157
23.0649
4.27392
1.3466
20.5047
43.695
69.8668
94.8445
115.164
128.324
132.869
128.324
115.164
94.8446
69.8668
43.695
20.5047
1.3466
8.46046
41.4591
74.3424
107.83
136.607
156.991
166.867
165.452
153.058
131.039
101.888
69.281
38.1634
8.73969
19.3771
71.4709
114.892
155.254
185.794
203.222
206.378
195.458
171.737
137.765
97.5843
57.3416
18.3587
38.3367
110.315
164.513
210.342
239.408
249.843
241.876
216.596
176.387
125.846
73.5495
33.2896
70.9737
154.552
220.025
269.494
292.976
291.475
266.079
218.023
151.848
80.956
57.2279
125.196
195.129
277.287
328.971
342.137
321.566
265.739
175.323
71.5189
97.8929
204.456
216.389
336.757
388.693
385.298
328.709
202.524
28.0748
169.059
246.377
209.518
416.239
460.482
429.582
271.209
-88.081
242.499
166.517
598.055
715.399
766.935
813.737
280.578
-0.0301138
21.6306
7.04938
8.54807
3.571
7.55696
4.94003
2.49046
6.44521
7.11721
3.44494
2.13672
5.98494
7.63549
6.79664
2.75821
2.03343
6.09626
8.24633
8.594
6.83748
2.45433
2.0904
6.68082
9.36453
10.521
9.84944
7.31882
2.38209
2.27351
7.70043
11.1288
13.1378
13.3619
11.6786
8.27297
2.48148
2.55763
9.11268
13.5838
16.7009
17.9628
17.1195
14.2286
9.69475
2.71704
2.91216
10.8463
16.7047
21.3117
23.9656
24.2285
21.9934
17.5346
11.5206
3.04789
3.2883
12.7803
20.3912
26.9547
31.5022
33.345
32.1501
28.0137
21.4935
13.5949
3.40836
3.60067
14.7091
24.439
33.4917
40.551
44.6083
45.0407
41.7009
34.9784
25.8088
15.6268
3.68782
3.69417
16.2755
28.4728
40.6155
50.9232
57.9734
60.7839
58.906
52.4959
42.3561
29.9139
17.1316
3.69794
3.2562
16.8423
31.8151
47.7359
62.1891
73.1875
79.289
79.6871
74.2645
63.6341
49.1549
32.8747
17.3595
3.12944
0.924759
15.2666
33.2508
53.7484
73.4914
89.6771
100.223
103.876
100.223
89.6772
73.4915
53.7485
33.2508
15.2666
0.924761
5.94507
30.8298
56.6304
83.1638
106.258
122.848
131.049
130.1
120.239
102.644
79.4287
53.6002
29.0383
6.16097
13.3037
53.3047
88.0287
120.516
145.584
160.294
163.395
154.95
136.115
109.122
77.2622
45.1552
12.798
25.4986
83.3242
127.564
165.023
189.583
199.078
193.342
173.512
141.974
102.526
61.1207
22.6716
45.6823
120.112
173.744
214.325
234.78
234.545
214.726
177.653
127.729
73.5129
37.5707
78.8138
160.205
223.488
264.843
276.383
259.809
216.897
151.948
78.2938
61.0003
131.828
196.364
273.619
313.035
308.339
262.264
175.814
69.4063
100.705
207.224
216.445
324.922
357.294
319.913
205.229
31.8434
170.284
244.144
213.433
391.883
402.501
272.402
-70.0118
241.143
173.063
576.661
700.025
758.07
304.683
6.66389
35.9046
22.5391
23.0312
7.27994
13.372
10.1958
3.57987
9.31142
10.5663
5.74531
2.6575
7.39573
9.71527
8.87703
3.89146
2.26894
6.67724
9.24731
9.82754
7.93436
3.01971
2.11975
6.61078
9.42571
10.7352
10.1697
7.59623
2.5969
2.12319
7.02666
10.2637
12.2112
12.5102
10.9975
7.78512
2.42902
2.23482
7.83531
11.7474
14.4916
15.6344
14.9428
12.4382
8.44406
2.43191
2.41836
8.95121
13.8289
17.6599
19.8685
20.0924
18.2379
14.5239
9.4966
2.55019
2.62968
10.2603
16.4083
21.6979
25.3483
26.8069
25.8119
22.4496
17.1776
10.8074
2.72161
2.79999
11.5852
19.3051
26.4831
32.0652
35.2433
35.5275
32.8172
27.4443
20.1722
12.1413
2.85462
2.81033
12.6299
22.2017
31.7507
39.8599
45.3846
47.5392
45.9781
40.8522
32.8319
23.0729
13.1169
2.8021
2.4251
12.8825
24.5395
37.0013
48.3624
57.0206
61.8028
62.056
57.7013
49.2639
37.8679
25.1628
13.1546
2.32905
0.655894
11.4521
25.3465
41.327
56.8478
69.6582
78.0455
80.9588
78.0456
69.6582
56.848
41.3271
25.3466
11.4521
0.655896
4.27391
23.0648
43.1156
63.9534
82.3003
95.636
102.342
101.722
93.9458
79.9993
61.6395
41.3181
22.0973
4.44001
9.38628
39.8625
67.1809
93.0023
113.263
125.438
128.324
121.882
107.066
85.7383
60.5827
35.1934
9.149
17.5274
62.6584
98.0354
128.252
148.599
156.991
153.058
137.736
113.08
82.1728
49.4269
15.9575
30.4735
91.6305
135.169
168.283
185.794
186.663
171.737
143.279
104.985
62.7866
25.8075
51.0028
125.682
176.782
210.342
220.773
208.681
176.387
128.243
72.9451
40.3381
83.46
161.967
220.025
250.528
247.382
213.01
151.848
77.3087
63.0386
133.99
195.129
261.944
283.722
254.23
176.817
71.5189
101.58
204.456
215.634
301.249
300.503
207.777
43.0682
169.059
237.027
215.655
342.753
266.78
-39.4833
236.706
182.729
539.731
661.554
331.734
18.3443
49.0901
36.2319
36.5859
21.4338
24.8076
24.3873
5.92904
14.8043
16.8065
11.1529
3.63984
9.97137
13.363
12.6263
6.27394
2.76462
7.98893
11.2846
12.2474
10.1508
4.18805
2.3427
7.12534
10.3344
11.9538
11.5153
8.73142
3.17311
2.14778
6.907
10.2169
12.2807
12.7209
11.3078
8.053
2.64442
2.09034
7.1405
10.7908
13.3832
14.5232
13.9717
11.6977
7.94175
2.38221
2.11814
7.70025
11.9523
15.2963
17.2452
17.484
15.9136
12.6942
8.27317
2.28444
2.18606
8.46536
13.5836
17.9788
21.0101
22.224
21.4042
18.6156
14.2287
8.90902
2.27796
2.23701
9.27898
15.517
21.3115
25.8086
28.355
28.5593
26.347
21.9935
16.1205
9.64826
2.27954
2.17937
9.89836
17.4841
25.0639
31.502
35.8747
37.5522
36.2653
32.1501
25.76
18.0301
10.1836
2.16904
1.83532
9.91922
19.0326
28.8206
37.7755
44.6081
48.3683
48.53
45.0406
38.3418
29.3541
19.4023
10.0601
1.76309
0.479404
8.65579
19.3962
31.8468
44.0266
54.1372
60.7838
63.0973
60.7839
54.1373
44.0268
31.847
19.3963
8.65585
0.479411
3.12943
17.3594
32.8747
49.1548
63.6339
74.2644
79.687
79.289
73.1875
62.1891
47.736
31.8152
16.8424
3.25621
6.76563
29.9263
51.2046
71.5351
87.7236
97.6477
100.223
95.3393
83.7518
66.9803
47.2067
27.2645
6.66456
12.3696
47.1105
74.9618
99.0361
115.624
122.848
120.239
108.494
89.282
65.0855
39.2965
11.4977
20.971
69.364
104.11
130.848
145.584
147.156
136.115
114.333
84.7773
51.7999
18.2968
34.1224
96.504
137.698
165.023
174.449
166.095
141.974
105.72
63.3797
27.8848
54.2091
127.479
173.744
198.293
197.137
172.189
127.729
72.6691
41.8648
84.9928
160.205
209.315
225.625
204.728
151.122
78.2938
63.6787
131.828
190.771
240.366
237.562
176.696
77.6025
100.705
195.845
210.92
259.39
205.79
61.1855
165.091
223.781
207.906
239.696
2.20269
227.943
191.827
478.189
341.965
35.3324
61.7324
49.1733
49.4651
35.5529
37.2377
37.4949
12.2505
25.029
26.9989
25.4736
5.67824
14.5338
19.348
18.9729
11.7694
3.70397
10.3691
14.7349
16.2673
14.0347
6.61321
2.82389
8.36063
12.2582
14.3644
14.1151
11.0134
4.35826
2.36631
7.37676
11.0315
13.3929
14.0567
12.7062
9.20323
3.22381
2.11965
7.00348
10.6706
13.3157
14.5657
14.1598
11.9945
8.20564
2.59712
1.9905
7.02641
10.9641
14.0696
15.9188
16.2236
14.864
11.933
7.78546
2.24229
1.92186
7.293
11.7471
15.5628
18.2027
19.2856
18.62
16.2409
12.4384
7.76553
2.04284
1.86156
7.65233
12.8462
17.6597
21.3897
23.5012
23.6749
21.8471
18.238
13.354
7.95312
1.90821
1.73817
7.90307
14.0283
20.1507
25.3481
28.8704
30.2094
29.1514
25.8119
20.6435
14.4061
8.08756
1.73165
1.41725
7.72849
14.9288
22.69
29.8082
35.2431
38.2257
38.3326
35.5274
30.1767
23.0309
15.1563
7.80172
1.36349
0.361548
6.60398
14.9501
24.6902
34.2747
42.2676
47.539
49.377
47.5391
42.2677
34.2749
24.6904
14.9503
6.60406
0.361559
2.32902
13.1546
25.1627
37.8677
49.2637
57.7011
62.0558
61.8028
57.0207
48.3624
37.0014
24.5397
12.8825
2.42511
4.9626
22.5735
39.0668
54.9835
67.8187
75.8208
78.0455
74.3473
65.3105
52.1608
36.6634
21.0621
4.92821
8.91409
35.49
57.2012
76.2004
89.5543
95.636
93.9458
84.9743
70.0405
51.1333
30.9052
8.42894
14.8011
52.3792
79.7184
101.068
113.263
115.163
107.066
90.4198
67.5691
41.8073
13.2637
23.5142
73.373
106.143
128.252
136.607
131.039
113.08
85.5863
52.9444
19.878
36.3453
98.105
135.169
155.254
155.664
137.765
104.985
63.5103
29.0525
55.2766
125.682
164.513
177.978
163.841
125.846
72.9451
42.3493
83.46
154.552
190.543
189.186
148.395
80.956
63.0386
125.196
181.414
206.328
172.09
86.6823
97.8929
180.555
197.172
191.155
84.122
157.439
202.111
173.677
48.9154
212.344
188.846
288.314
56.7644
74.1082
61.7014
61.9474
48.8007
49.6843
50.045
32.6637
37.1741
38.5416
38.3711
11.22
22.6101
28.3188
28.7296
26.284
5.66435
14.5414
20.1683
22.3818
20.411
12.1658
3.74398
10.6326
15.5123
18.2582
18.3053
14.9575
6.80463
2.84262
8.56445
12.8519
15.6873
16.668
15.3938
11.5137
4.41401
2.34256
7.45743
11.419
14.3111
15.7827
15.5487
13.4139
9.35975
3.17348
2.03325
6.90667
10.8179
13.9073
15.7996
16.2245
15.0296
12.2242
8.05359
2.45471
1.81997
6.68041
10.7904
14.2952
16.7353
17.7845
17.2622
15.164
11.6981
7.31945
2.01125
1.64408
6.60806
11.1283
15.2959
18.5198
20.3563
20.5389
19.0029
15.9137
11.6791
6.93706
1.71297
1.44681
6.51272
11.6136
16.7004
21.0097
23.926
25.0356
24.1648
21.4041
17.1197
11.9333
6.66414
1.44918
1.12668
6.14596
11.9488
18.2144
23.9651
28.3546
30.7588
30.8359
28.5591
24.2284
18.4548
12.1042
6.18858
1.0875
0.283089
5.10835
11.6703
19.37
26.979
33.3446
37.5519
39.0203
37.552
33.3448
26.9793
19.3703
11.6707
5.10846
0.283099
1.76305
10.0599
19.402
29.3539
38.3415
45.0404
48.5298
48.3682
44.6081
37.7756
28.8207
19.0328
9.91933
1.83534
3.69789
17.1315
29.9137
42.3558
52.4956
58.9058
60.7837
57.9732
50.9231
40.6156
28.473
16.2756
3.69419
6.53569
26.8287
43.6712
58.5768
69.2326
74.2644
73.1874
66.3348
54.7356
39.9773
24.1507
6.26529
10.6619
39.5699
60.8829
77.7747
87.7236
89.6771
83.7517
71.0339
53.3578
33.2597
9.77318
16.6031
55.566
81.3174
99.0361
106.258
102.644
89.282
68.3583
43.1335
14.4772
25.073
74.704
104.11
120.516
121.896
109.122
84.7773
53.2782
20.7812
37.0903
96.504
127.564
139.07
129.795
102.526
63.3797
29.4269
54.2091
120.112
148.836
149.38
121.533
73.5129
41.8648
78.8138
144.007
162.866
141.163
84.3045
61.0003
113.756
164.374
158.06
96.4162
92.5747
157.4
168.205
106.761
144.306
168.927
101.028
185.814
150.514
79.577
86.3916
73.9993
74.2253
61.4358
61.9774
62.304
47.7193
49.5731
50.4547
50.6669
31.7096
35.8874
39.1347
39.7621
39.0984
11.0714
22.0401
28.227
30.8259
29.9982
26.8425
5.67862
14.6465
20.6128
23.9804
24.4406
21.343
12.3905
3.75678
10.7788
15.9698
19.3992
20.769
19.6583
15.4832
6.86698
2.82366
8.62868
13.1695
16.4825
18.2742
18.2569
16.1396
11.6783
4.35888
2.26868
7.37626
11.5426
14.8176
16.8792
17.4813
16.4373
13.649
9.20427
3.02037
1.88235
6.61023
10.67
14.099
16.5025
17.6038
17.2276
15.3208
11.9953
7.59733
2.21636
1.57289
6.09146
10.263
14.0691
17.0033
18.6962
18.9243
17.6113
14.8643
10.9983
6.55386
1.69241
1.28312
5.64033
10.0876
14.4909
18.2021
20.7107
21.6788
20.9613
18.6198
14.9431
10.4416
5.81515
1.30162
0.936384
5.05692
9.8895
15.0983
19.8678
23.5007
25.4881
25.5535
23.6746
20.0924
15.3038
10.022
5.09302
0.90935
0.233054
4.0391
9.30979
15.5162
21.6607
26.8063
30.2089
31.3968
30.2091
26.8066
21.6612
15.5168
9.31021
4.03931
0.233071
1.36346
7.80149
15.1559
23.0305
30.1763
35.5271
38.3322
38.2255
35.243
29.8083
22.6902
14.9291
7.72873
1.41729
2.80205
13.1168
23.0727
32.8316
40.8518
45.9777
47.5389
45.3845
39.8599
31.7508
22.2018
12.63
2.81037
4.86804
20.3897
33.4523
45.1251
53.5881
57.701
57.0205
51.7683
42.7438
31.2119
18.8276
4.71651
7.81263
29.9668
46.5052
59.7905
67.8187
69.6581
65.3104
55.5785
41.8914
26.2217
7.29545
11.9586
42.0556
62.1235
76.2004
82.3003
79.9992
70.0405
54.0754
34.5624
10.7096
17.7111
56.631
79.7184
93.0023
94.8445
85.7382
67.5691
43.544
15.1798
25.5976
73.373
98.0354
107.83
101.888
82.1728
52.9443
21.0733
36.3453
91.6305
114.892
116.769
97.5843
62.7866
29.0525
51.0028
110.315
126.592
113.01
73.5495
40.3381
70.9737
127.304
126.128
86.3247
57.2279
97.1399
137.21
102.517
83.7856
125.519
129.991
123.411
131.64
148.976
55.6121
98.7208
86.2028
86.4389
73.7184
74.1448
74.4259
60.8886
61.8249
62.427
62.7105
47.0986
48.9486
50.6797
51.26
51.2221
31.4015
35.3206
38.9594
40.8769
40.7499
39.6313
11.042
21.9512
28.2635
31.7635
32.6199
30.8595
27.1698
5.6845
14.7214
20.8881
24.8279
26.5597
25.7836
21.8717
12.464
3.74359
10.8241
16.2037
20.0436
22.2039
22.4493
20.4345
15.655
6.80564
2.76421
8.56369
13.2679
16.8996
19.227
20.0579
19.1856
16.3858
11.5155
4.1892
2.13645
7.12452
11.4183
14.978
17.4793
18.7026
18.4894
16.733
13.4154
8.73329
2.75907
1.656
6.09567
10.216
13.9065
16.7297
18.385
18.6956
17.5632
15.0302
11.3092
6.8389
1.88097
1.24143
5.24364
9.36382
13.3823
16.7345
18.9953
19.8929
19.3071
17.2619
13.9723
9.85055
5.5073
1.29026
0.832263
4.39041
8.61774
13.1371
17.2442
20.3555
22.0561
22.1243
20.5383
17.4838
13.3624
8.76928
4.44066
0.816767
0.205722
3.31024
7.69625
12.8608
17.9621
22.2231
25.0349
26.0153
25.035
22.2236
17.9628
12.8616
7.69688
3.31053
0.205751
1.08744
6.18824
12.1037
18.4542
24.2278
28.5586
30.8354
30.7584
28.3545
23.9653
18.2148
11.9492
6.14627
1.12674
2.16902
10.1833
18.0297
25.7596
32.1496
36.2648
37.5516
35.8743
31.5019
25.0641
17.4844
9.8986
2.17945
3.68777
15.6267
25.8085
34.9781
41.7005
45.0403
44.6079
40.5507
33.4916
24.4391
14.7092
3.60071
5.81596
22.8011
35.6334
46.0611
52.4956
54.1371
50.923
43.445
32.8167
20.5824
5.51146
8.75976
31.8873
47.4616
58.5768
63.6339
62.189
54.7355
42.5155
27.4011
8.02119
12.7571
42.8897
60.8829
71.5351
73.4914
66.9803
53.3578
34.977
11.2579
18.0848
55.566
74.9618
83.1638
79.4287
65.0855
43.1335
15.4088
25.073
69.364
88.0287
90.5606
77.2622
51.7998
20.7812
34.1224
83.3242
97.3148
88.9599
61.1207
27.8848
45.6823
95.7967
98.0925
71.5423
37.5707
59.9214
103.486
83.7905
51.2156
75.3938
102.725
70.5203
89.1313
94.8985
66.6025
111.234
98.4307
98.7079
85.8293
86.2634
86.5202
73.2829
73.9148
74.3911
74.6621
60.4366
61.4343
62.439
62.9303
63.0908
46.79
48.519
50.528
51.7873
51.9631
51.6485
31.2863
35.1145
38.8328
41.375
42.2358
41.4597
39.9543
11.0353
21.9433
28.3385
32.2562
34.1084
33.8182
31.3589
27.2785
5.67812
14.7448
21.0222
25.2739
27.7043
28.2333
26.5468
22.0445
12.392
3.70333
10.7776
16.2727
20.3516
23.0018
24.0983
23.4233
20.6892
15.4858
6.61505
2.65708
8.35936
13.1682
17.0262
19.7204
21.0921
21.068
19.4936
16.1426
11.0165
3.89292
1.93034
6.6764
11.0303
14.8166
17.6679
19.3621
19.7926
18.8257
16.4386
12.7089
7.93676
2.38015
1.33657
5.3318
9.42476
13.3144
16.5015
18.6373
19.5182
19.0605
17.227
14.1608
10.1717
5.78415
1.44783
0.813195
4.11977
8.06759
12.2102
15.9174
18.6951
20.2106
20.2943
18.9232
16.2232
12.5112
8.28552
4.21028
0.811913
0.199448
2.87186
6.72346
11.2264