/*--------------------------------*- C++ -*----------------------------------*\
  =========                 |
  \\      /  F ield         | OpenFOAM: The Open Source CFD Toolbox
   \\    /   O peration     | Website:  https://openfoam.org
    \\  /    A nd           | Version:  12
     \\/     M anipulation  |
\*---------------------------------------------------------------------------*/
FoamFile
{
    format      ascii;
    class       volScalarField;
    location    "0";
    object      p;
}
// * * * * * * * * * * * * * * * * * * * * * * * * * * * * * * * * * * * * * //

dimensions      [0 2 -2 0 0 0 0];

internalField   nonuniform List<scalar> 
62494
(
18.806
18.805
18.5279
18.5712
18.8546
18.595
18.198
18.5035
18.5654
18.1657
18.228
18.204
18.3164
18.6427
18.9169
18.2544
18.7511
18.6088
18.3323
18.2679
18.3261
17.9711
18.5971
18.1428
18.4316
18.886
18.208
18.1452
18.1984
18.4767
18.6402
18.6727
18.3076
18.8777
18.3083
18.2618
18.2514
17.9187
18.0118
17.9856
18.0496
18.394
18.7
19.1681
18.9897
18.0314
18.8002
18.9688
18.7333
18.5175
18.4933
18.4163
18.4012
18.325
18.8716
18.3625
18.2901
18.3385
18.1038
18.0542
18.1139
17.7129
18.6365
18.3627
18.9314
18.8109
18.5511
18.7348
18.292
18.3292
18.2622
18.1232
17.8958
19.0197
19.0339
18.8324
18.8601
19.2074
17.9869
17.8987
17.9777
18.5383
18.732
18.2833
18.1124
18.4852
18.8924
19.2064
18.3606
18.3672
19.0514
19.3564
19.0008
19.4079
18.1131
18.0602
18.0497
17.6678
17.7866
17.7597
17.7453
18.1308
18.4833
19.1788
19.1374
17.7906
18.596
19.0255
18.9281
19.2567
18.5753
18.4923
18.4891
18.421
18.4047
18.3017
18.2874
18.195
18.1915
18.2907
18.1302
18.8863
18.3814
19.1998
18.4076
18.3447
18.1679
18.0895
18.1381
17.8634
17.8301
17.8908
17.6246
17.4579
18.3286
18.714
18.1742
19.1285
18.9761
19.0702
18.9087
19.2202
18.8923
18.6178
18.8048
18.0894
18.1344
18.0592
17.6298
18.2617
17.6522
19.1825
19.0936
19.1859
18.9191
19.4529
19.339
19.3246
19.4129
17.7587
17.6478
17.7505
18.6054
18.8081
17.8931
17.9096
18.7011
18.569
18.1036
18.5359
19.1494
19.4592
19.2123
19.0582
19.4774
17.9733
18.4205
17.9849
19.164
19.3453
19.6188
19.464
19.6461
18.6124
18.44
19.2583
19.0353
19.5548
19.5078
19.8393
19.7055
19.4602
17.9104
17.8497
17.8392
17.4161
17.5545
17.5276
17.4484
17.8485
18.2359
18.7138
19.3796
18.888
18.8372
18.9718
17.5293
18.8349
18.3572
19.209
18.5543
18.8675
18.4834
18.6115
18.1304
18.3043
18.2911
18.2266
18.2049
18.0709
18.0695
17.9594
17.9707
17.8983
17.9274
18.3773
18.3621
18.4033
18.3667
19.1187
18.4753
17.9898
18.025
17.959
17.9646
17.8787
17.9273
17.6137
17.5959
17.6566
17.3627
17.2012
17.9153
18.5421
18.8269
17.9718
19.2723
19.1425
19.2177
18.9799
19.4013
19.3531
19.0009
18.7101
18.8974
17.8782
17.9322
17.8482
17.3942
17.7835
17.1628
17.5263
18.5947
18.3718
18.6989
19.1742
19.2484
18.9986
19.5696
19.5619
19.4698
19.4547
19.6121
19.635
19.5845
19.512
19.4076
19.3932
17.3872
17.5184
18.9184
17.6979
17.4656
17.6996
18.8208
18.3165
19.0028
18.1929
17.683
18.1446
18.798
19.5019
18.9557
19.1302
19.447
19.3192
19.2941
19.1653
19.8064
19.7276
19.3543
19.4842
17.7646
17.7223
17.5482
18.043
17.5624
19.4973
19.7376
19.7227
19.9057
19.7942
20.0344
18.9074
18.3267
18.2448
18.0688
19.6582
19.6125
18.0888
19.2887
18.222
19.5917
20.0978
20.1673
18.1647
17.8388
19.8108
19.908
20.0228
19.939
20.1239
19.6219
19.9528
19.5191
19.7046
19.6015
19.5837
19.4757
19.6517
17.6308
17.6209
17.1521
17.3181
17.2901
17.1494
17.5592
17.9649
19.1139
18.9709
19.1982
19.071
18.6395
19.1876
18.7318
17.2272
18.5351
18.0952
18.8353
18.1387
18.904
18.7482
19.2339
18.4287
18.2319
18.3654
17.9626
18.1068
17.8276
17.646
17.8393
18.1019
18.0815
18.0231
17.9949
17.712
17.7378
17.7155
17.4671
17.7516
18.4119
18.0082
17.9877
18.0254
17.9872
19.1535
17.5965
18.4179
17.8919
17.5566
17.8104
17.5986
17.5336
17.6585
17.7066
17.0561
16.9374
18.1218
17.4778
17.6608
18.9325
18.7853
18.7432
18.5647
18.8446
19.2373
19.2917
19.0735
19.428
19.0288
17.6302
17.1349
17.9531
18.1634
17.3033
16.6654
17.291
16.8615
17.0513
18.7533
18.5261
19.2874
19.3332
19.1063
19.6286
19.7234
19.6296
19.5219
19.5232
19.7208
19.4752
17.1409
17.2822
17.4789
17.0009
17.4809
17.2544
17.2541
18.4405
19.1589
17.8957
18.6209
19.3993
17.7751
17.2235
18.408
17.7201
19.1541
19.2525
19.9448
19.5762
19.369
19.5892
19.4613
19.2026
20.0711
20.246
19.7172
19.5909
17.5453
17.5041
17.0858
17.3224
17.2781
17.6242
17.0998
19.9275
20.2281
20.0498
20.2902
20.2209
20.5211
18.5276
19.2744
18.9735
17.5056
17.8328
17.6559
20.6526
20.0731
17.2606
18.2251
18.191
18.3548
18.7233
17.9099
21.0006
16.518
18.8609
16.7919
17.8127
17.2364
17.4193
16.9415
17.0308
17.4652
19.2918
18.7834
19.2511
19.7811
20.6658
18.904
21.155
21.148
20.3744
20.1621
17.3533
17.027
20.3652
20.2642
20.5051
19.7786
19.9291
20.2932
19.8118
19.8315
19.7076
19.6573
19.5499
17.4047
17.3954
16.9402
16.8917
17.0762
17.047
16.8608
17.2669
17.6795
19.3079
19.2979
18.9799
19.2131
18.8178
18.3577
19.0198
18.4454
16.9746
16.7192
17.3658
17.4057
18.2282
17.8147
19.195
17.6852
17.8628
18.6718
18.5102
18.8003
19.6798
18.4309
18.2601
17.9501
17.6839
18.0307
17.8383
18.1652
17.4017
17.563
17.1329
17.7738
16.9967
19.0224
17.5508
17.5873
17.5717
17.6031
17.5661
20.1825
19.6342
18.2489
19.215
18.7754
17.0881
17.1968
16.5616
17.132
17.468
17.9613
17.4871
17.0668
16.7608
16.6809
18.3372
18.5411
18.1413
18.3536
17.688
17.0154
17.4371
17.2073
19.1077
18.9437
18.9171
18.7292
19.3877
19.5237
17.4056
17.7002
18.0703
18.3064
17.4047
17.1682
17.4595
16.7912
16.049
16.1763
16.298
16.0729
16.3127
16.3633
16.5679
16.6129
16.8119
16.5732
16.8661
17.0394
18.8942
18.7111
19.4427
19.7424
19.7772
19.7057
19.6025
19.5848
16.7764
16.3427
16.7757
17.0168
17.0188
17.172
17.1627
18.78
18.0214
19.5923
17.437
18.2018
19.0206
19.8937
17.3155
17.9851
18.7685
17.2615
19.6026
19.624
20.4936
19.8587
19.963
19.5183
20.5066
20.794
19.6538
16.8499
17.088
16.8024
17.0436
17.1739
17.1639
20.4567
20.8229
20.473
20.7728
20.7466
21.1125
18.1122
18.8967
19.7398
18.1358
19.9878
17.3788
17.2039
16.5175
20.6333
22.0587
20.9215
17.137
17.1152
17.3835
16.2694
16.6088
19.6224
18.8619
17.0429
17.7727
16.7235
17.4146
17.0565
16.3829
16.813
17.5238
19.4966
17.8788
17.0843
21.7202
24.4776
15.3195
15.3185
17.2321
19.7325
18.912
17.3853
17.8939
17.7537
19.5628
20.108
20.2852
16.0296
17.0235
18.628
16.4823
18.1393
16.6276
15.7326
17.9789
15.9058
18.3993
16.3156
20.4515
20.0086
20.4546
20.9211
22.1601
20.0073
18.0712
22.6223
21.3737
22.5312
21.1677
20.8254
20.6155
16.3783
16.0529
20.6845
20.9836
20.0845
19.8644
20.7251
19.7499
19.7709
19.6444
16.682
16.632
16.8298
16.8006
16.5829
17.39
18.8561
19.7385
19.4093
19.0849
18.7391
18.9953
18.57
16.7045
17.1041
16.2976
16.4112
16.4302
16.895
16.8877
16.197
16.5796
17.5275
17.2477
17.8887
19.2474
18.3243
20.2495
18.1764
18.4818
17.9997
18.31
17.9165
17.7324
17.438
17.7
17.8579
17.1198
17.3636
17.2839
17.5513
16.8422
17.003
16.5922
16.2882
18.1366
16.5276
17.1407
17.1017
17.9222
23.6792
19.2905
20.6838
21.6782
18.2461
17.1793
18.747
17.8155
18.3133
17.0061
16.6757
15.3668
16.939
16.124
16.3757
16.4732
18.1229
18.5138
18.7181
17.9234
18.3078
18.5194
17.9065
17.7019
17.2322
16.5274
16.734
16.9723
19.311
19.1223
19.1222
18.9314
17.8309
18.236
18.4735
17.4946
17.3008
16.9322
17.6174
17.2371
16.2188
16.6901
16.3472
16.156
16.3442
17.011
16.0682
15.8262
15.6935
15.6308
15.8859
15.6764
16.0923
16.3398
16.3579
16.5487
16.6053
16.7946
16.6012
18.8489
19.7976
19.7019
16.3412
16.6901
16.3873
16.7431
15.1946
16.4996
15.8655
15.8101
16.6776
16.9333
16.9235
18.3611
19.2157
17.5619
20.1247
17.7453
18.6033
19.5186
20.4918
18.3491
17.5278
19.2225
19.5337
19.3495
20.1547
19.3659
20.1239
21.1596
20.2408
20.449
21.0483
21.4949
16.6923
16.9357
21.0897
21.5283
20.9948
21.3586
21.3755
21.8139
17.6605
18.4796
19.365
20.3027
18.0212
17.1336
19.1521
21.4127
19.9296
15.3728
21.2987
23.8856
22.0693
21.5824
22.3468
16.3378
16.3778
15.126
17.2556
14.9819
15.3589
18.2223
20.28
22.8634
18.987
17.3565
17.4842
17.1073
17.2599
16.2782
16.978
15.9552
16.6136
15.7624
15.1283
15.5453
16.5182
17.3297
22.7735
16.8522
16.0968
22.4032
25.2531
32.4496
13.6697
16.704
12.574
17.4242
16.415
15.7545
13.853
16.0078
18.8452
19.7637
20.9113
18.352
17.0468
19.6525
20.3148
20.1938
16.1495
16.7262
18.6847
16.5866
20.7449
21.2273
21.401
15.1243
16.0739
17.818
19.8143
15.5711
17.3586
19.3984
15.6811
14.2086
19.2916
16.915
14.4882
19.6974
17.2984
14.8404
22.0301
21.6628
22.0776
22.475
24.0791
21.5258
19.1791
17.0774
24.4816
22.932
22.0248
21.2024
22.775
24.3098
21.8235
22.581
15.2461
14.9219
21.5632
21.2593
16.3934
16.3806
16.5519
18.9533
19.2974
18.3564
19.7924
20.3438
19.1833
18.8167
19.1792
18.7506
16.8187
16.1993
16.0313
15.9877
16.5347
16.1295
16.1391
16.1037
16.6799
16.9662
16.3627
16.375
15.7793
15.8778
15.659
17.5431
17.1934
18.7687
17.8111
18.2132
18.5463
18.0233
18.4469
17.9314
17.6451
17.7383
17.4596
17.37
17.1815
16.8943
17.0355
17.2285
16.7331
16.4547
16.9232
16.0268
16.4893
15.1296
15.9416
15.8345
17.0823
15.3416
16.8681
21.1254
14.9762
15.8784
15.9625
18.1317
18.1595
19.479
24.0424
30.4269
18.2525
19.3634
20.7813
21.7974
17.6909
17.2804
17.1148
16.7114
15.3018
13.5346
16.3231
18.3029
18.7201
18.9244
18.0925
18.4991
18.7114
17.6797
18.0858
17.4785
17.8728
17.4547
16.753
17.2537
16.013
19.143
18.0283
18.4433
18.6789
17.4396
17.0518
17.7885
17.3877
16.0268
16.3212
16.6045
16.8151
15.8811
15.9479
15.8284
15.7413
17.1651
15.8255
16.0951
15.4488
15.2179
15.426
15.2725
15.4765
15.1818
15.5926
15.2822
15.6136
15.3021
15.8455
15.6228
16.3418
16.2449
15.5984
17.0181
17.5137
15.3505
14.7315
13.2289
14.6626
15.3128
15.2496
15.5839
17.901
18.798
19.7503
20.761
18.1469
19.1039
20.1198
21.2003
17.8956
18.8062
18.9509
19.1546
19.779
19.7898
19.6064
20.0655
19.8858
20.8206
19.598
19.8843
20.7402
21.9774
20.7123
21.0894
21.7334
22.2396
21.8304
22.3462
21.6187
22.0515
22.1106
22.6175
18.9507
20.9724
18.4996
15.9661
18.1401
19.053
20.5825
19.5138
23.2768
21.7472
20.6025
21.3801
13.2059
23.9388
24.1931
22.949
23.2168
26.1526
15.1795
15.2128
16.0756
17.8571
13.6351
20.1499
13.3452
11.9731
13.6696
16.198
21.2686
23.6013
16.7304
18.4235
16.0415
16.1932
15.8221
15.9616
15.3439
16.006
15.0432
15.657
14.0549
13.5845
13.945
15.3639
15.6729
20.3432
14.5036
28.2003
14.9493
17.8851
32.581
17.3285
20.7383
20.018
25.6178
52.1384
14.7811
11.5228
14.5026
14.0736
11.2268
13.9662
15.8255
14.9374
18.0068
13.4009
12.6889
8.61606
15.073
12.8871
14.4724
12.0226
18.7324
17.7706
17.0969
14.446
18.897
20.112
17.7097
20.9493
21.9411
21.8893
22.2389
22.1855
19.3908
17.1824
16.538
18.973
19.9168
19.475
18.8021
17.7581
17.6772
15.2046
15.098
14.5827
14.4631
20.8511
21.4357
21.3264
14.5697
15.1868
19.9593
17.5622
15.0656
21.719
21.8149
21.9967
22.1051
22.3827
22.4886
22.2202
22.3299
22.5719
22.6245
22.4658
22.4121
14.9704
16.8484
19.0079
21.4198
16.4206
18.6216
21.0825
14.5843
12.3325
21.0204
18.2814
15.5222
18.6465
21.3912
15.8604
13.0073
24.0232
23.7475
24.0808
22.5872
22.8636
23.1899
24.398
23.0631
23.49
26.4544
20.7066
18.1765
15.9148
24.7316
26.731
23.1048
23.3105
21.8211
23.6246
22.5413
24.4026
24.578
24.5728
23.4402
26.4777
22.3465
22.2462
20.9333
21.925
16.1474
18.6588
18.958
18.9288
19.3482
18.4257
18.8089
17.8177
19.795
20.3509
19.0074
16.6156
15.9465
15.8707
15.7479
16.3246
16.2627
15.8904
15.8881
15.7074
15.6547
16.403
16.5132
16.84
16.135
15.9962
15.8118
15.52
15.5308
15.6479
15.6201
15.2846
15.3652
15.1018
17.2624
18.2718
18.1524
17.6432
17.9644
17.443
17.835
17.3502
16.8254
17.1374
17.1335
16.2214
15.9595
16.1619
15.8961
16.7974
14.7722
14.6707
15.3649
15.2658
15.9423
16.9062
15.4162
21.4382
17.7035
11.4209
16.5674
13.8248
14.9063
18.1948
18.2089
17.7008
17.1133
19.5721
24.0589
30.4484
21.9831
48.4258
18.2789
18.3014
19.3703
18.8494
20.7905
21.8056
16.6777
13.9913
14.7411
14.6574
15.2421
15.3281
15.6602
15.0406
10.3088
14.5692
12.5612
13.0682
13.2573
16.2548
18.5106
18.2863
18.7158
18.9411
17.861
18.2946
17.6485
18.0671
17.0775
17.6306
17.4197
15.4662
19.4006
18.2191
18.6569
18.8718
17.1993
17.6303
17.5665
17.9843
16.1286
16.428
16.1446
16.967
15.9376
16.2511
16.0714
16.9737
15.4537
15.356
15.6456
15.5522
15.3916
15.4523
15.3672
17.3498
15.4605
15.1818
14.8033
14.948
15.1106
15.398
14.9955
15.1505
14.6404
15.0667
15.175
15.3982
15.2675
15.495
15.2934
16.5858
15.6979
14.8972
14.1212
15.8558
16.3567
15.1349
17.9196
17.4932
16.9997
18.3547
18.6839
18.65
13.6698
14.5139
10.0893
13.6874
12.3234
12.3134
14.4793
15.043
15.2267
15.1891
15.4659
15.4211
18.3384
19.3336
20.3892
21.5058
19.7073
20.831
22.0242
18.7424
18.5281
19.3677
19.2105
19.4121
19.4959
19.6948
20.4466
20.3806
19.6544
20.1973
20.7059
20.5318
21.6078
20.1843
20.538
21.504
22.8431
21.2855
21.6705
22.5105
23.1188
22.6806
23.2699
22.8454
22.9504
23.5272
16.9539
14.3977
19.5594
19.7398
18.8735
22.4649
20.1906
20.503
20.9664
23.6358
25.6143
22.6358
23.2825
22.275
21.1369
12.651
10.108
23.6402
25.041
23.8957
25.2772
28.914
26.2666
26.4793
14.3291
12.6709
18.7723
14.1273
20.805
5.10886
11.7587
12.0482
16.0771
13.984
14.2927
10.6582
11.2408
7.60224
11.6813
13.5361
14.8817
19.0046
16.2285
13.3206
17.1884
14.2987
14.3914
14.1838
14.298
14.5462
11.9991
17.111
11.082
20.3874
22.2256
45.5257
14.1381
25.6692
52.1777
28.4197
14.9592
13.6073
16.6374
16.0816
6.82233
42.9834
16.6342
84.5891
55.4698
13.1591
16.0421
15.3125
9.44451
8.8791
12.8083
7.81471
11.4671
12.239
13.7231
15.2325
17.11
16.2524
19.7625
13.7813
10.6065
14.7928
9.13261
2.76184
16.4652
14.2501
15.8566
20.4841
19.5812
18.9038
12.5395
20.1568
21.5542
19.0103
21.504
21.0953
21.0487
16.3279
16.2993
16.899
16.8731
21.9691
21.9721
22.2644
22.2616
22.8078
22.7531
23.0994
23.0434
18.5568
20.6126
15.3389
18.8557
15.5231
13.5349
18.1489
17.1036
17.4603
20.1951
21.0736
20.6406
20.0782
16.2201
19.0579
16.1546
18.9974
13.3359
13.2444
12.7104
12.6661
21.8858
21.9438
22.1539
22.2249
22.6467
22.6379
22.4896
22.4834
22.5945
22.5242
22.3703
22.4431
12.6596
13.3128
15.5276
15.4845
21.3393
18.8781
21.4339
20.9125
20.988
16.1463
16.7202
16.2374
16.8133
13.2038
15.3549
15.4272
22.6823
22.9663
23.1741
23.3958
23.4518
23.3124
23.2559
15.7131
18.0275
20.6242
23.4784
17.6713
20.3162
23.2337
23.1911
20.0756
16.9084
17.2278
20.3951
23.4682
22.2343
21.7999
14.0762
15.9229
25.821
25.9893
25.7609
25.9379
25.5188
25.6747
25.6653
25.8324
23.5611
25.7932
24.6018
24.8596
23.8279
25.7728
25.9911
25.9453
24.1418
25.1246
26.2028
25.0302
24.0097
26.1247
26.1276
26.0637
22.6942
25.9432
27.1286
29.3512
27.3055
19.6939
16.9983
26.2613
25.2159
24.232
24.8884
26.2899
26.3314
26.3143
27.4074
27.3656
27.4332
27.4053
28.7542
28.6444
28.7826
28.6578
23.1489
23.3602
23.7718
25.4669
24.1061
24.7074
25.9988
24.8109
23.8862
24.7395
26.1574
26.071
26.2272
24.2768
25.6195
23.1758
27.0924
27.2569
26.7628
26.6431
28.2898
28.4937
28.2547
28.4763
23.0284
21.4873
22.684
18.3816
18.6643
18.8683
19.3519
18.4303
18.5566
18.9332
18.8247
18.0478
17.8369
17.2472
19.7489
19.3092
20.2736
19.015
15.6361
16.0578
15.5333
15.4118
15.3453
15.8593
15.7982
15.7307
15.5924
15.4682
15.1667
15.3038
15.3094
15.4176
15.0811
14.8576
15.1847
14.5208
17.6462
17.4276
17.3249
16.7255
17.0624
15.912
15.7188
15.7122
15.7187
15.4619
16.0424
15.825
16.4758
15.4023
16.8803
15.8171
15.4392
16.467
21.4588
17.9693
13.5589
7.36829
11.54
16.6153
13.8444
14.9464
18.2129
17.7171
18.2117
17.7107
17.107
17.1115
19.5855
23.7316
20.71
21.7031
21.1698
22.0113
48.4342
6.09108
13.7546
35.4161
77.1997
18.3055
18.8535
18.2913
18.8214
19.3156
16.658
13.8698
14.5004
14.6342
15.054
15.1934
15.5922
14.9851
10.309
6.65956
10.1318
14.5288
12.4533
13.0381
12.4845
16.1824
18.5029
18.9582
19.1739
18.0722
17.8455
18.287
17.8444
17.6213
18.4337
18.9246
19.0874
17.4173
17.8264
17.7776
18.2142
16.5637
15.5812
16.515
15.7247
15.7639
15.9039
15.7873
16.6002
17.2522
17.4311
16.4306
16.4265
16.2366
17.5659
15.5606
15.6916
14.9726
15.1671
15.0704
15.3078
15.2174
14.8679
14.9223
14.7275
14.351
14.4553
14.7054
14.7973
15.0948
14.7519
14.8381
13.9691
14.9275
15.1106
16.7476
13.2488
16.4465
10.8356
14.6054
12.634
17.5045
19.2233
18.0185
18.0768
17.8472
17.5383
18.307
18.9196
18.6433
18.1558
20.3085
19.5916
19.2531
19.9692
13.3481
14.2537
9.89431
6.49393
13.4658
12.0964
12.15
14.252
14.7483
15.0083
14.9545
15.2127
15.152
19.9739
22.3634
20.4211
21.6579
22.9654
19.0034
18.7915
19.2901
19.0799
20.039
19.2434
19.81
19.4335
20.0082
20.1506
20.3445
21.2333
19.9562
21.1174
20.3296
22.5587
22.194
23.8556
23.3157
24.0608
24.3087
23.7358
24.5432
18.3414
17.1709
14.1075
11.0163
21.4394
19.5135
22.4155
24.8411
22.8768
21.4218
21.8689
20.2623
20.723
23.3354
24.7557
28.4882
25.9996
24.4161
25.6753
22.9784
21.9989
9.66419
3.83962
24.713
24.9501
29.1224
31.2063
27.6205
29.2693
27.8057
31.5429
31.2856
31.6249
29.662
29.9254
25.907
26.1232
10.5319
11.1775
16.843
4.37956
14.9352
12.3853
12.2588
8.41375
5.10315
8.14877
2.39155
2.4738
6.75801
9.02255
8.64374
2.24275
10.2973
15.9527
15.2288
12.9314
8.37759
12.3046
15.3539
12.205
13.3051
4.18968
5.65124
15.9402
33.2827
12.3907
5.81925
37.4033
13.3368
74.0239
6.82697
43.0002
22.3342
84.5976
55.5026
45.6018
20.571
4.37534
10.6365
13.6448
10.9422
12.2044
11.6099
73.648
133.085
88.3643
55.4738
11.1604
16.4822
10.124
17.741
16.5431
3.60936
7.1427
3.05627
14.1502
9.6876
2.44759
12.6927
13.5632
15.0849
16.9676
18.8488
18.0351
22.0162
11.6571
15.1882
14.1038
3.83158
13.0615
9.00967
10.134
16.6527
2.94404
9.3972
11.9053
9.12463
18.3253
16.0844
17.7041
22.7199
21.8895
21.221
21.5848
21.5935
21.1282
21.1451
22.4232
19.9034
18.3183
19.8704
20.547
20.5046
18.284
17.5782
17.5412
22.3716
21.964
21.9175
16.0925
16.0614
22.8476
22.8663
23.1344
23.1446
23.7447
23.6866
24.0349
23.9754
19.8647
22.3018
16.9756
11.7602
13.9335
22.2138
17.4041
12.7064
13.9532
9.11312
15.652
14.1861
15.9835
19.4749
18.4515
18.8123
21.9042
22.6819
22.2642
21.5169
21.5723
21.0994
21.1356
14.3762
17.6043
16.7896
16.806
17.6035
19.9372
18.3439
19.9711
20.5808
20.6039
18.3454
17.5437
14.3187
19.9737
19.9847
20.5632
20.6007
9.38334
22.8033
22.8546
23.0638
23.1233
23.4803
23.4792
23.3439
23.3478
23.0545
23.4435
23.3634
23.2515
23.3191
13.6071
13.5598
14.5687
14.5513
19.7779
18.1527
20.3728
19.8269
20.4487
18.2342
17.4093
17.4851
22.3146
21.8692
16.0056
13.4656
13.5128
14.412
14.4989
23.6298
23.9087
24.1049
24.3074
24.3653
24.2394
24.1798
16.8714
19.6345
22.71
26.0636
19.354
22.4926
25.9357
25.282
22.3239
25.4325
24.9956
25.1339
18.5424
19.539
18.7191
19.7224
17.8008
17.9616
18.9641
15.468
18.1789
18.8639
18.091
17.363
16.5985
22.5421
20.6768
21.2867
19.9293
19.8508
23.2239
25.5187
24.275
23.8591
22.7946
25.5183
25.1862
25.2069
14.0209
15.0192
27.1439
27.3025
26.9757
27.12
27.0908
27.241
25.7478
27.1503
24.6287
25.9863
24.9108
27.181
27.2996
27.3125
26.2425
25.1028
26.1484
27.3938
27.3863
25.1866
21.6824
28.9532
28.6813
30.3301
31.8388
30.4565
28.7981
32.0785
32.1608
31.9097
30.327
30.1454
18.4805
25.2846
26.2721
26.3793
24.9637
26.3688
26.432
26.4461
25.3475
27.3911
27.378
27.3966
28.6508
28.5747
28.8149
28.8488
30.2431
30.078
23.5079
25.1426
25.7375
24.4124
24.516
24.8876
25.8246
23.6213
26.1357
24.9395
24.799
26.1908
26.2896
26.3491
27.1473
27.2963
23.9047
25.2962
28.2882
26.847
28.4576
26.4239
28.0086
26.2939
27.9349
29.6484
29.8844
23.1741
22.824
23.5173
18.3832
18.447
18.3699
18.82
18.4935
18.6866
18.7491
17.8399
18.2791
18.0483
17.9682
18.4613
18.7619
17.7134
17.3392
17.2293
19.698
19.2672
19.6602
19.2425
20.2343
15.0581
15.4804
15.5545
15.3069
15.0283
15.165
14.8762
14.3312
14.5905
14.9975
16.7363
16.9559
15.542
15.2103
15.7311
15.3783
15.3254
16.0146
15.3787
15.9192
15.1499
16.8895
18.162
19.508
17.9723
8.52304
2.01379
7.49647
11.5632
17.7226
17.7236
17.1158
17.1243
18.1848
16.6292
17.9706
17.7075
6.09765
13.763
13.5769
35.4254
77.2026
45.5536
8.70395
2.208
2.14312
10.1732
56.9428
118.712
17.8308
18.2738
18.7895
18.2752
18.7756
13.8806
14.3614
14.6422
14.8457
15.2024
15.5972
14.9986
10.3145
6.70494
1.93848
9.49126
14.5574
12.4666
13.0798
16.1894
18.7474
18.0689
18.5359
18.6857
19.1879
17.6885
18.0266
18.5035
15.2332
15.2899
16.1003
16.9982
15.9023
16.2736
16.0763
15.4355
15.4225
15.5609
15.1846
15.5911
14.823
16.8113
16.8256
17.4852
18.0085
17.0703
16.6555
16.9099
17.7321
17.8062
18.0722
16.0463
15.8525
14.6137
14.5378
14.9229
14.8258
15
14.9061
14.6826
14.3941
14.1068
13.566
14.5471
14.4744
14.5965
14.6012
14.7828
14.6475
14.6914
14.7989
18.014
11.6949
12.9225
14.2391
19.1176
15.6175
12.7804
20.6139
19.7618
17.0801
15.6287
6.97614
11.1358
9.51474
10.0223
14.1222
12.3643
20.9864
18.3536
18.6383
18.0986
18.3766
18.5737
18.8622
19.2985
19.3949
19.02
18.9598
18.6864
17.5877
18.9257
20.2632
19.786
21.2924
22.443
20.3814
21.751
20.7975
19.5255
19.1817
13.3686
14.024
14.0456
6.42855
10.7229
9.18094
9.16581
10.7234
10.9644
9.39966
1.96971
13.4832
14.1516
12.1315
12.1786
14.4409
14.79
14.7254
14.9311
14.8432
21.2495
22.6043
24.0169
19.0212
19.6065
18.8131
19.3974
19.9508
19.742
20.8264
19.5365
19.7648
20.7233
19.8703
20.112
22.1414
22.0155
23.5302
24.9246
24.2909
25.1712
25.4656
24.7349
25.6812
20.2009
21.825
20.454
17.2271
13.4826
10.7809
5.32543
23.8195
23.5859
22.1138
27.7755
24.0245
24.836
25.2887
22.5713
21.1288
21.5879
24.4239
28.6216
28.9066
27.3797
27.0759
32.0013
25.6378
24.0799
25.3112
30.7862
28.7115
33.049
27.2353
28.8717
29.3466
30.8949
27.4266
33.4423
33.1245
31.2854
33.5194
31.6102
3.00342
3.00653
6.89514
2.025
8.01718
2.49123
2.48272
3.03314
4.31966
9.47368
3.97222
27.0817
54.7288
9.91247
64.3767
116.145
11.6122
5.82863
73.6537
37.4411
16.0094
133.089
88.3756
74.0486
55.5012
48.5062
33.3476
13.8856
5.667
4.95662
2.99716
9.35735
3.00617
11.3147
22.3279
122.964
196.781
136.705
88.3661
52.1472
6.60996
14.5409
8.45933
21.8022
19.9553
19.2329
13.0989
4.81858
18.1877
1.10496
15.9319
13.1879
3.44789
14.4558
15.3693
16.9065
21.0919
20.3335
24.8304
16.0373
16.9169
16.1623
17.095
17.1995
19.0188
5.74895
13.7733
14.8757
11.7249
19.7099
18.4368
4.07627
13.2642
10.3137
17.0055
17.9645
12.1245
12.0553
9.27116
9.21847
20.6876
18.8132
20.0621
25.5361
24.8036
24.1128
22.468
22.497
22.0139
22.0557
23.2465
23.2166
23.0276
22.997
19.1354
19.1227
19.54
19.5358
20.7535
18.7539
18.7338
17.4976
19.0925
20.7328
19.1091
19.5084
19.5258
21.4095
21.3734
17.4669
18.7111
18.7208
16.7637
16.7278
23.1712
23.1908
22.9592
22.9742
22.5271
22.5
22.7904
22.7598
22.4804
22.4857
22.7222
22.7385
15.1691
15.1431
23.8074
23.8577
24.0865
24.1215
24.7037
23.7169
23.6797
23.6271
23.6513
24.6473
25.0212
24.9568
21.6396
24.4533
15.7395
14.4597
20.2057
3.68457
14.7067
11.1025
11.2733
26.4122
22.2819
24.1089
24.3625
25.6464
26.5208
25.7442
20.7821
23.0476
20.0871
14.8027
19.8818
19.2401
11.1398
15.2744
2.92502
17.0894
15.5708
17.3958
21.2922
20.3411
20.6497
24.7344
22.4663
22.5032
22.0495
22.0751
12.1228
14.155
14.8676
15.8608
15.8529
14.897
17.5272
17.5442
19.1751
20.8091
19.2197
20.8885
21.4627
21.5208
19.2368
15.7137
19.2504
18.4605
18.4464
12.0348
20.9511
20.9469
21.5472
21.5578
3.03091
9.28572
9.29023
23.8558
23.8772
24.0975
24.1282
24.4036
24.4202
24.2836
24.3075
24.931
24.4091
24.3704
24.2598
24.3025
14.1358
19.0312
19.0809
20.7127
21.3383
17.4272
16.6751
23.2688
22.8205
15.0938
14.0923
25.2288
25.1639
18.4463
21.7204
25.3211
29.2166
21.5278
25.2108
29.2376
26.7881
24.1329
22.004
24.264
24.5921
24.7336
22.1654
20.7249
20.8719
26.9279
26.529
26.6679
18.9791
16.3424
15.4709
17.3052
16.2706
17.2233
16.4744
14.7137
15.7044
18.2314
19.1581
19.0937
22.8115
22.2592
24.296
23.3757
21.6953
22.2947
21.0189
22.2513
20.973
24.7686
24.328
24.8004
19.9625
25.434
26.9384
24.2617
23.8097
25.0645
26.9822
26.6705
26.7195
28.7082
28.8371
28.6267
28.7563
28.7002
28.8273
27.0148
25.6634
28.7285
25.9534
27.1942
28.7938
28.8069
28.8661
26.1508
27.3244
28.8283
28.8794
28.2529
24.1778
32.6317
32.2399
30.451
33.7868
30.473
30.5612
32.342
34.0912
32.1338
34.1864
31.8876
33.8705
26.0821
26.0257
26.1002
26.0477
26.5694
26.5197
27.3281
26.5935
27.3649
26.5008
25.4477
26.5639
26.6115
26.5285
25.4036
27.3916
27.4552
26.1658
27.4368
26.1295
26.6706
26.626
26.1189
26.0796
28.4966
28.459
28.4033
28.3882
28.3213
28.3031
30.0312
29.0555
28.9637
29.8864
30.3752
29.076
31.997
31.7633
25.4147
24.0378
24.5905
24.1375
25.503
25.8918
26.9086
23.2839
27.1943
24.6379
24.9669
25.9436
26.2364
26.2689
26.4067
26.4552
27.2538
27.3316
27.392
28.2664
28.3905
24.8888
29.5468
28.0386
26.5155
29.7331
25.9928
27.6623
29.3541
25.856
27.5679
31.1965
31.5039
23.6438
22.9219
24.4568
18.1934
18.4478
18.2756
18.3457
18.225
17.9341
17.9429
18.8025
18.32
18.523
18.5773
17.3433
17.2329
17.7118
17.332
17.6484
18.1565
17.8326
19.1905
18.2878
15.3352
15.1421
14.8175
14.9604
14.719
14.6024
14.8483
16.1917
16.8435
16.9671
17.0701
15.2167
15.0039
15.918
15.3832
15.3431
15.5632
15.1418
15.9661
15.6748
15.0699
16.6627
16.6291
15.0052
14.598
13.1377
2.06429
7.50402
11.4371
17.2588
17.7219
17.1336
17.72
17.1434
15.9474
15.9974
17.2171
5.65098
8.70824
2.20853
2.13154
8.51666
10.1769
56.9455
33.3124
118.713
74.0311
37.4143
18.2764
87.7672
169.187
17.3894
17.833
17.6635
17.3645
17.6552
17.8448
18.3419
14.7599
14.0157
14.3707
14.8564
15.3473
10.3405
6.70795
10.8197
9.22843
12.5848
1.95109
16.2701
18.3209
18.983
19.4858
17.9292
18.2847
18.7836
14.87
15.0464
16.3433
15.8118
16.5967
16.505
16.7601
15.6108
15.9245
15.7277
15.1947
15.1205
15.267
14.9079
15.6704
16.0637
15.2284
14.5443
16.6403
16.2422
18.2898
17.6473
18.3244
18.7073
17.4969
17.3478
17.1875
18.6854
18.0137
18.3642
16.2722
16.527
14.7697
14.2772
14.6342
14.6716
14.8148
14.7189
14.5214
14.4097
14.5278
14.118
13.5739
14.5606
14.8388
14.6112
14.7427
14.7916
14.6222
14.5806
14.6672
14.5937
12.0888
11.4987
12.906
13.798
21.2196
17.4984
15.1501
16.3684
8.28494
23.9221
27.2142
24.7999
21.9741
19.9179
21.5856
19.0472
16.4544
15.0573
6.75073
2.20548
9.8934
14.1317
12.3458
23.2444
18.5981
19.6909
20.0886
19.3815
19.7778
19.2357
18.9032
17.1951
18.3006
17.3564
16.8868
17.0461
20.9929
19.5452
20.5328
20.6748
20.2156
21.2805
19.1472
20.8309
21.2145
20.7479
22.3339
21.7351
25.1705
22.4315
21.9689
23.5186
22.829
24.0511
19.9041
20.3067
22.1994
14.28
13.6946
14.2761
14.0364
14.0573
6.418
1.94032
10.429
10.8431
9.25564
14.3534
14.162
14.5207
13.7095
12.3434
12.3313
14.6269
14.4532
14.5612
14.7141
14.6401
23.6717
25.1955
19.3231
19.1159
20.3258
19.6845
20.1175
19.4484
20.719
20.5181
21.5727
20.0361
20.4079
23.1654
22.919
24.6348
26.1833
25.3647
26.4242
26.766
26.9617
22.5425
25.5076
26.0102
22.9056
22.2973
29.3084
17.4051
20.5118
20.3419
13.6
2.72517
11.6733
26.7812
23.2277
31.3279
27.8275
28.2635
26.2925
26.7116
23.6811
24.4764
24.9237
28.2
30.3283
28.4886
30.5949
26.9892
26.6814
36.1848
32.4509
32.1963
24.8733
30.3503
32.621
28.2221
35.1139
28.3959
28.9687
30.4752
30.9179
32.6977
35.5586
35.1817
33.0964
35.6421
33.4902
0.652921
4.18457
0.622182
7.46725
17.1974
6.8167
47.3226
86.6616
19.135
107.977
168.004
22.3289
9.91822
3.97934
122.967
64.3896
27.1118
4.33697
196.783
136.71
116.156
88.3767
77.228
54.7514
52.1666
48.5057
35.4941
9.49443
3.93351
3.5228
9.62393
3.49988
10.6068
3.80038
0.648037
13.4368
2.98325
11.4079
8.75007
10.3463
13.3624
46.3658
190.156
271.458
200.45
136.706
84.5936
42.9924
2.64543
16.1801
5.2498
11.423
16.6862
18.22
19.9354
22.681
26.0822
22.0084
25.4794
30.1311
17.6076
11.7453
17.6815
18.6608
19.236
23.8805
23.1851
28.2579
17.1685
18.1276
19.4765
20.0972
19.6492
18.1848
18.337
17.3731
21.9753
20.4834
19.1568
6.05625
9.3872
13.9557
16.4368
15.0594
11.8728
28.2222
23.6888
19.7652
25.5904
21.3617
24.9306
13.3827
10.4139
13.4225
10.4594
21.3089
19.9855
23.6548
22.9964
28.9753
25.734
26.1763
28.3552
27.627
23.2787
23.3103
23.0624
23.0992
23.3654
23.3387
23.1662
23.1333
22.5669
22.6151
22.8279
22.8694
22.7099
22.6631
22.9419
22.9079
23.4961
23.4568
19.1496
19.9641
19.1429
19.9646
20.3696
21.2255
20.3903
21.2117
21.5852
21.5675
18.3174
18.307
17.8936
16.5733
17.8699
20.3855
21.2311
19.958
20.3919
19.9621
21.5747
21.2126
21.5669
19.1228
19.1348
22.2379
22.2163
21.9197
21.9029
22.2013
21.9101
22.2076
21.9018
17.8567
16.5498
18.2785
17.859
18.2948
15.8426
15.8137
23.4187
23.4326
22.9752
22.9417
23.2487
23.2097
22.9313
22.9329
23.1848
23.1913
24.8253
23.7602
23.8039
23.871
23.8427
24.9347
25.1068
25.1861
25.3186
24.6531
25.2465
25.5576
25.4729
24.5873
24.1925
24.1446
24.1169
24.1194
25.264
24.5721
25.2322
25.4541
25.4393
24.5653
25.8599
25.8111
25.7181
25.657
25.7638
25.6247
25.7765
25.6263
23.8712
27.1604
25.0295
25.2419
19.2487
17.4309
23.3631
23.4349
24.6318
24.7167
5.34159
17.3726
13.7601
13.6491
25.9565
26.9093
29.7365
25.1909
21.4433
23.5609
27.0354
28.944
29.7383
26.4012
28.9518
25.6176
22.189
18.5677
4.04716
13.4264
10.4099
14.9402
15.1631
11.9549
11.8762
17.1805
18.9868
17.466
19.2741
22.6839
22.9709
25.4363
25.3784
27.319
23.5429
23.549
23.1436
23.1349
13.4549
14.8334
15.5991
16.6052
16.6243
15.6123
18.3406
18.402
20.0274
21.2743
21.6295
21.3537
21.701
20.148
21.5184
21.4351
21.8417
21.7747
22.28
21.965
22.3353
22.0303
22.4387
22.3898
22.1618
22.0973
20.2549
16.5753
17.5191
16.5541
17.5289
20.2337
19.4619
19.4323
22.0901
22.0438
22.6664
22.6364
4.17317
10.4668
25.012
25.2393
25.2959
25.3548
26.6851
25.4676
26.6106
26.6009
26.6659
25.39
14.8029
18.2626
19.9726
21.6621
22.2913
16.5242
15.7701
14.7661
25.9654
25.9211
26.0546
26.0126
25.8711
25.8867
25.9573
25.9778
24.3284
28.517
33.0438
24.2338
28.5306
30.4707
33.2122
30.4906
28.4845
23.506
25.881
23.6513
26.3176
21.4538
20.1386
28.6189
28.265
28.4094
16.3745
17.3443
15.5218
17.3472
18.299
17.2784
18.2389
19.172
20.2672
20.2333
22.6802
24.1554
22.6198
22.0565
22.0008
22.6939
23.7068
22.3688
21.7126
21.5362
25.9085
23.2847
24.6334
20.9335
21.4628
20.9137
21.4338
20.5599
21.1033
21.5322
23.722
26.3191
25.9442
26.3708
20.5346
26.773
25.3088
28.5965
24.3367
23.8881
23.8249
24.8962
24.0795
23.391
23.6467
26.4957
28.6606
28.4079
28.4618
30.599
30.6111
28.165
26.7834
28.0408
28.2312
28.1149
25.6985
25.8938
30.5436
28.9859
29.0372
26.2346
26.072
27.0268
28.3198
28.1997
28.2883
28.1709
30.6304
30.544
29.0801
29.0692
30.6339
27.1994
26.3455
26.4457
28.3535
28.2446
28.3746
28.2777
30.4674
29.0833
29.0826
30.5725
27.2711
31.9511
36.9774
32.3886
34.3298
35.957
32.336
32.5017
34.4487
36.3137
34.1729
36.4474
33.843
36.065
26.5377
27.0804
27.0126
28.1138