/*--------------------------------*- C++ -*----------------------------------*\
  =========                 |
  \\      /  F ield         | OpenFOAM: The Open Source CFD Toolbox
   \\    /   O peration     | Website:  https://openfoam.org
    \\  /    A nd           | Version:  12
     \\/     M anipulation  |
\*---------------------------------------------------------------------------*/
FoamFile
{
    format      ascii;
    class       surfaceScalarField;
    location    "0";
    object      phi;
}
// * * * * * * * * * * * * * * * * * * * * * * * * * * * * * * * * * * * * * //

dimensions      [0 3 -1 0 0 0 0];

internalField   nonuniform List<scalar> 
192519
(
7.77313e-06
-1.62048e-05
8.43145e-06
-1.04218e-05
2.14011e-05
-1.93847e-05
1.61781e-05
0.000103735
-2.38081e-05
-9.61555e-05
-1.70775e-05
-2.32295e-05
-2.17972e-05
-2.17613e-05
8.38877e-05
-1.39141e-05
-1.39525e-05
1.74445e-05
-7.195e-06
-2.0532e-05
2.70361e-05
2.20917e-05
7.47799e-06
-3.00356e-05
9.80562e-05
-1.82719e-05
-2.20698e-05
-1.99863e-05
-1.987e-05
6.79398e-05
-2.58046e-05
-3.7403e-06
3.10257e-05
-2.52892e-05
-1.30705e-05
-1.29265e-05
-1.28201e-05
5.62203e-05
-2.11702e-05
-1.46478e-05
-2.24015e-05
-2.21413e-05
-1.11199e-05
-2.20785e-05
9.516e-05
-9.06066e-05
-1.498e-05
-1.27007e-05
-1.73433e-05
-1.88645e-05
-1.82322e-05
6.04886e-05
-2.69065e-06
-2.4657e-05
-2.16867e-05
-2.42264e-05
2.44217e-05
-3.59095e-06
-2.21418e-05
-2.3519e-05
-3.06363e-06
-2.2096e-05
-1.54036e-05
-1.48415e-05
1.62924e-05
-2.02204e-05
2.46108e-05
-6.54917e-06
-2.7266e-05
1.40181e-05
2.83655e-05
1.84669e-05
2.44457e-05
-5.78795e-06
-3.30724e-05
6.16064e-06
7.41607e-06
6.60531e-06
0.000103367
-1.72461e-05
-1.86347e-05
-1.94548e-05
-2.02313e-05
-1.93712e-05
6.28958e-05
0.000100349
-1.90517e-05
-1.31913e-05
-1.65043e-05
-1.68803e-05
-1.73882e-05
5.95537e-05
-5.09052e-06
6.82743e-06
2.46285e-05
-2.39895e-05
2.48258e-05
-4.15282e-06
-2.20258e-05
2.5328e-05
-4.16347e-06
-2.12989e-05
-2.98983e-05
-2.86172e-06
2.79034e-05
-2.04332e-05
-1.26326e-05
-2.17742e-05
-1.77485e-05
6.06726e-05
-2.16259e-05
-2.06112e-05
-2.13387e-05
-1.56344e-05
-1.57344e-05
-1.72513e-05
-1.36182e-06
1.85354e-05
-1.43241e-05
-1.57764e-05
-9.23848e-06
1.0649e-05
-1.42306e-05
-1.88307e-05
-1.13776e-05
-2.15316e-05
-1.27578e-05
-2.17844e-05
6.16404e-05
8.0862e-05
2.27721e-05
-2.62521e-06
-2.12836e-05
-2.13956e-05
-1.50776e-06
-1.92618e-05
-2.66944e-06
-2.19867e-05
2.60391e-05
-3.30701e-06
-3.19169e-05
-2.21952e-05
-9.93842e-06
9.46746e-06
-4.09461e-06
2.28343e-05
-2.47177e-05
-2.29384e-05
3.15845e-06
2.50355e-05
-3.20039e-06
-1.70351e-05
0.000386068
1.44842e-05
-5.85271e-05
-5.34514e-05
-8.64517e-05
-8.67577e-05
-5.6643e-05
-5.50759e-05
-8.64798e-05
-8.62683e-05
-4.29791e-05
0.00017286
1.38875e-05
2.65938e-06
-2.29218e-05
-2.43152e-06
-1.75879e-05
-2.37922e-05
2.38591e-05
-1.93643e-05
-2.33199e-05
-1.91094e-05
-2.23511e-06
-2.29095e-05
-2.64406e-05
-2.43656e-05
2.48041e-05
-2.93367e-06
-2.25087e-05
-2.37551e-05
-2.48283e-06
-2.24591e-05
-1.26357e-05
-1.86495e-05
1.64434e-05
-2.08875e-05
2.37867e-05
2.78405e-05
-2.43354e-05
1.12174e-05
2.80052e-06
-2.11922e-05
2.03994e-05
2.16039e-05
1.49703e-05
2.50913e-05
-4.8472e-06
-3.80491e-05
2.08597e-05
-2.4864e-05
1.72575e-05
2.4095e-05
-1.56152e-05
0.000109095
-7.54473e-05
6.1239e-05
-1.32243e-05
0.000106751
-1.56342e-05
-1.82931e-05
-1.80958e-05
-1.86541e-05
6.02534e-05
-4.67545e-06
-2.52131e-05
7.3582e-06
2.47735e-05
-2.08779e-05
-2.58281e-05
2.5884e-05
-4.01318e-06
-2.01725e-05
-4.82864e-06
6.39312e-06
-2.23812e-05
-3.98036e-06
-2.07199e-05
2.41591e-05
2.98901e-06
-2.52869e-06
-1.86359e-05
-6.26132e-05
-4.50348e-05
-6.09846e-05
0.000439379
-6.10007e-05
-5.92669e-05
0.000182286
1.33498e-05
1.35357e-05
3.29948e-06
2.55792e-05
-3.24632e-06
-1.79772e-05
2.48356e-05
-1.90215e-05
2.55812e-05
-1.89978e-05
-4.48672e-06
5.71887e-06
2.53651e-05
-2.54957e-05
2.49094e-05
-3.54223e-06
-2.34362e-05
2.53711e-05
-3.65534e-06
-2.25921e-05
-2.62544e-05
-2.52519e-06
3.84605e-05
2.84703e-06
-3.29618e-05
1.58749e-05
2.86553e-06
-2.74756e-06
-1.70589e-05
-2.07077e-05
1.81434e-06
2.13193e-05
-2.06781e-06
-2.10625e-05
-1.77518e-05
-2.12711e-05
-2.17709e-05
-2.11342e-05
-2.12546e-05
5.12212e-05
9.0535e-05
3.32815e-06
-3.02023e-06
1.49277e-05
-2.09866e-05
1.74784e-05
-1.74967e-05
-2.10347e-05
1.64956e-05
-2.11226e-05
2.24759e-05
-2.10057e-05
-1.79162e-05
2.32275e-06
-2.60379e-06
-1.70556e-05
-1.84422e-05
1.31475e-05
2.19953e-05
1.88696e-05
-7.39428e-06
-6.13614e-05
-6.70122e-05
-1.25208e-06
1.88856e-05
-2.02624e-05
-1.18194e-05
-7.88519e-06
8.32696e-06
-2.02139e-05
-5.60183e-06
-2.55283e-05
1.79928e-05
-1.11755e-05
-5.13566e-06
-2.52039e-05
-2.27033e-05
-1.55667e-05
-2.07174e-05
4.47526e-05
-1.68074e-05
-2.12571e-05
1.26635e-05
0.000101276
2.29178e-05
-1.88039e-06
-2.16898e-05
-1.59883e-06
-2.1687e-05
-2.13359e-06
-2.22894e-05
2.06037e-05
-2.96445e-06
-2.09652e-05
-3.64713e-06
1.86245e-05
-1.90915e-05
2.44757e-06
-8.97134e-05
-9.51028e-06
2.27427e-06
9.58328e-05
-6.54919e-05
-2.32044e-05
2.70274e-06
2.42233e-05
-1.83095e-05
8.64211e-06
8.89914e-05
-8.3678e-05
-9.15024e-06
-5.82569e-05
5.22251e-05
-9.76848e-06
2.52237e-06
3.1439e-06
-5.8067e-05
-8.22762e-05
-1.14752e-05
3.84973e-06
3.36321e-06
-8.28255e-05
3.81962e-06
3.50648e-06
4.52278e-05
2.30869e-06
2.44248e-06
-8.43776e-05
-6.27615e-05
9.54149e-05
-9.94289e-06
-6.10656e-05
4.58862e-05
-5.18874e-05
-9.34995e-06
-8.08968e-05
4.03009e-05
-1.05322e-05
-8.16261e-05
0.000380642
-4.60287e-05
-4.9177e-05
-8.34488e-05
-8.34422e-05
-5.42146e-05
-4.61736e-05
-8.43372e-05
-4.58123e-05
-8.31972e-05
0.000152208
1.68352e-05
-8.72144e-05
-8.76532e-05
-4.7559e-05
-8.7401e-05
-8.75225e-05
1.68995e-05
0.000111729
0.000393973
1.53788e-05
1.53921e-05
2.3434e-06
-2.26813e-05
-1.81804e-05
-2.37524e-05
2.42482e-05
-2.00913e-05
-2.3186e-05
-1.98156e-05
-2.2426e-06
-2.32013e-05
-2.72513e-05
-2.44096e-05
2.54831e-05
-2.47397e-06
-2.36336e-05
-2.38893e-05
-2.11749e-06
-2.31048e-05
-4.64269e-06
-1.51952e-05
-1.81988e-05
1.93869e-05
-2.30009e-05
2.42755e-05
3.19586e-05
-2.61143e-05
1.96117e-05
-5.00101e-06
1.70057e-05
-2.50158e-05
-1.92357e-05
9.32174e-05
-2.30094e-05
-1.60383e-05
-2.47148e-05
5.46348e-05
4.63311e-05
2.60725e-05
-3.51792e-06
-2.67859e-05
2.42034e-05
1.87949e-05
-2.85459e-05
-1.27594e-05
-1.25516e-05
0.000114108
-7.08003e-05
6.03787e-05
1.62911e-05
-1.31186e-05
-7.56301e-05
0.000118716
6.28361e-05
-2.58792e-05
-2.64594e-05
5.16318e-06
5.163e-06
-1.49665e-05
0.000108854
5.67979e-06
5.03934e-06
-8.73839e-05
3.54036e-06
-2.51039e-05
-3.6321e-06
2.63939e-05
-1.68322e-05
-2.56904e-05
2.56882e-05
-1.87638e-05
3.40428e-06
-2.83464e-06
-1.81906e-05
-1.93401e-05
-4.54751e-06
-2.57537e-05
6.8215e-06
-2.32775e-05
-2.5869e-05
-3.66281e-06
-2.16477e-05
-4.46149e-06
5.84499e-06
-2.41534e-05
-3.6296e-06
-2.20498e-05
2.94555e-06
0.000100221
-1.00345e-05
3.07635e-06
-6.87668e-05
2.43942e-05
2.86399e-06
-1.87255e-05
-4.59255e-05
-4.94197e-05
-5.76679e-05
-5.85404e-05
-5.83261e-05
0.000434848
0.000170638
-9.82227e-06
2.6189e-06
2.69939e-06
0.000105753
-6.84804e-05
1.18137e-05
-4.72577e-05
-0.000271582
0.000200128
0.000509613
1.24966e-05
1.16156e-05
-0.000100851
-1.07647e-05
0.000106862
-6.6069e-05
-1.00138e-05
-6.47237e-05
3.0912e-06
2.53266e-05
-1.89245e-05
2.47933e-05
-2.0245e-05
2.5411e-05
-2.01798e-05
-3.72483e-06
4.16498e-06
2.58585e-05
-2.5722e-05
2.52617e-05
-2.90293e-06
-2.383e-05
2.55318e-05
-3.10809e-06
-2.34791e-05
-1.23484e-05
-2.53986e-05
-2.41981e-06
2.58591e-05
8.49209e-06
-3.94952e-05
1.60438e-05
2.09971e-05
1.77811e-05
2.157e-05
-7.87389e-06
-7.0092e-05
-8.2445e-05
1.58079e-05
3.04597e-06
-2.09953e-05
1.74952e-06
2.16194e-05
-1.78149e-05
-1.35914e-05
4.31896e-06
-2.09255e-05
1.27764e-05
3.89571e-06
-2.09669e-05
-1.5086e-05
-2.09613e-05
1.36299e-05
-2.10851e-05
3.99239e-05
-2.17372e-05
-2.08357e-05
-2.14166e-05
-2.09103e-05
9.03283e-05
3.45341e-06
1.51105e-05
-2.05989e-05
1.73877e-05
-2.05601e-05
1.66385e-05
-2.05671e-05
2.23582e-05
-1.88356e-05
2.06108e-06
-1.77363e-05
-1.93427e-05
1.79523e-05
2.22161e-05
-2.93854e-06
1.54497e-05
-5.9665e-05
-7.68704e-05
2.24939e-05
1.92906e-05
-5.19499e-06
-6.06466e-05
-1.86244e-05
-1.94334e-05
1.7596e-05
-1.04307e-06
1.97797e-05
-2.10469e-05
-1.2055e-05
4.81521e-06
-1.71661e-05
-5.331e-06
-1.93176e-05
1.62864e-05
1.45892e-05
-6.13887e-06
-2.323e-05
-4.62998e-06
-1.91156e-05
-2.30086e-05
-1.98631e-05
-2.04718e-05
-2.11551e-05
-2.04075e-05
1.06435e-05
2.32879e-05
1.67188e-05
1.44279e-05
8.458e-05
-1.39801e-05
9.49352e-06
-7.50559e-06
-6.41828e-06
1.09525e-05
-2.51823e-05
2.62948e-06
1.00339e-05
2.30874e-05
-1.3733e-06
-2.22312e-05
-1.31072e-06
-2.3798e-05
-1.67973e-06
-2.27224e-05
1.58758e-05
-3.05667e-06
-1.44936e-05
-4.08741e-06
1.43834e-05
-1.3512e-05
2.29638e-06
-8.8936e-05
-8.2931e-06
2.08114e-06
9.47561e-05
2.08416e-06
-7.13608e-05
1.8798e-06
-2.32456e-05
2.35551e-06
2.40931e-05
-1.92165e-05
7.99029e-06
-8.24618e-06
-5.57787e-05
-7.95311e-05
8.78162e-05
-7.78402e-06
-8.17168e-05
-5.34961e-05
7.42509e-06
8.75897e-05
-8.21359e-05
-8.0081e-06
-6.31282e-05
-6.1111e-05
-8.12172e-05
5.29748e-05
-9.1584e-06
3.1345e-06
3.24654e-06
-5.82937e-05
-7.94366e-05
2.20601e-06
3.05021e-06
-1.12386e-05
3.84227e-06
4.14326e-06
3.27712e-06
3.79968e-06
-8.00709e-05
4.63959e-05
-1.40498e-05
4.53987e-06
-2.0471e-05
1.28748e-05
4.0222e-06
-2.04219e-05
-1.29638e-05
3.72083e-05
3.92797e-06
4.26839e-06
-8.31036e-05
4.22814e-06
4.44712e-06
1.90572e-06
1.91271e-06
-8.3582e-05
1.47966e-06
1.73086e-06
-6.77195e-05
-9.63622e-06
9.50666e-05
-5.67351e-05
9.36839e-05
-8.74982e-06
-6.67036e-05
4.18971e-05
-8.44354e-06
-4.72709e-05
-7.89824e-05
4.48781e-05
-4.95844e-05
-8.54186e-06
-7.68076e-05
3.32093e-05
-1.12297e-05
-8.22952e-05
-9.1858e-06
3.69308e-05
-7.98232e-05
3.93856e-05
-9.76854e-06
-7.76039e-05
8.37362e-05
-8.23964e-05
-8.12359e-06
-5.52145e-05
9.31978e-05
-1.05771e-05
-5.46934e-05
3.87903e-05
-4.49472e-05
-8.39191e-06
-7.82309e-05
4.70658e-05
-0.000181831
-0.000334044
-0.000201142
0.0017042
-0.000213846
-0.000326658
-0.000327685
-0.000335726
-0.000175098
-0.000189268
0.000395438
4.68599e-05
-9.3488e-06
3.46335e-05
-7.88774e-05
-8.55382e-05
-8.54287e-05
-8.46182e-05
-8.5757e-05
0.000102273
0.000390784
1.35504e-05
-1.16462e-05
-8.25549e-05
2.64589e-05
4.5288e-06
-8.3143e-05
4.21144e-06
4.21484e-06
4.47517e-06
2.89481e-05
-2.13417e-05
-2.16752e-05
-2.01323e-05
-2.11311e-05
2.81098e-05
8.99848e-05
2.05967e-06
-2.25343e-05
-1.88705e-05
-2.37486e-05
2.44329e-05
-2.08943e-05
-2.31342e-05
-2.04881e-05
-1.29446e-06
-2.72618e-05
-2.40937e-05
-2.43634e-05
2.45566e-05
-2.08508e-06
-2.41619e-05
-2.3864e-05
-1.58789e-06
-2.3311e-05
-2.65474e-06
-1.41895e-05
-2.18551e-05
2.05002e-05
-2.45615e-05
2.51123e-05
3.20959e-05
-2.80899e-05
9.00423e-06
2.31611e-05
-2.20351e-05
-1.73253e-05
-1.9435e-05
-1.67898e-05
-1.81502e-05
0.000107753
5.62126e-05
1.7243e-05
2.87026e-05
-2.10369e-05
-2.16714e-05
7.10826e-06
-2.02806e-05
2.54585e-05
2.14996e-05
1.67382e-05
-2.71409e-05
2.55897e-05
-2.88064e-06
-2.6291e-05
-1.50016e-05
2.46496e-05
1.77944e-05
-3.20728e-05
-7.29719e-05
0.000123146
6.26297e-05
-2.73495e-05
-2.68524e-05
-1.22207e-05
0.000113221
-8.04827e-05
3.92402e-06
3.74664e-06
-1.27883e-05
3.64119e-06
4.35751e-06
0.000117771
-8.74292e-05
2.40716e-05
8.80596e-06
-2.45836e-05
6.91527e-06
2.53709e-05
-2.34558e-05
-2.60488e-05
-2.63763e-05
-1.30469e-05
0.000108983
4.93689e-06
4.54519e-06
4.81213e-06
4.38059e-06
-2.47283e-05
-9.88921e-05
-2.59499e-05
3.17156e-06
-2.56682e-05
-1.9066e-05
-2.58528e-05
-2.02548e-05
3.12011e-06
-1.8953e-05
-2.02915e-05
-4.18368e-06
-2.59968e-05
6.12049e-06
-2.52667e-05
-2.59744e-05
-2.27968e-05
-3.4365e-06
-4.04976e-06
5.2187e-06
-2.54607e-05
-3.27082e-06
-2.32715e-05
2.48968e-06
0.00010054
-8.99589e-06
2.59574e-06
1.96326e-06
-7.5275e-05
2.67127e-06
2.43645e-05
2.55523e-06
-1.90627e-05
-9.49562e-05
1.18872e-05
-1.26471e-05
0.000103299
-5.70026e-05
1.03555e-05
-1.02718e-05
-5.95102e-05
-9.90686e-05
0.000104349
-6.26992e-05
-6.19881e-05
-5.41952e-05
-0.000253507
0.000190409
0.000504883
-0.00010938
-0.000109289
1.10951e-05
1.14265e-05
-4.43077e-05
0.000492406
-0.000333897
1.07586e-05
-9.29743e-06
2.70515e-06
2.69266e-06
2.5049e-06
-7.80401e-05
2.11426e-06
-0.000100173
-9.92142e-06
-7.4561e-05
-9.2704e-06
-7.09391e-05
2.80863e-06
2.5312e-05
-2.0085e-05
2.48341e-05
-2.09941e-05
2.53146e-05
-2.09598e-05
-3.1971e-06
3.19684e-06
-2.61455e-05
2.60134e-05
2.5081e-05
-2.4863e-05
-2.37226e-06
-2.45979e-05
2.55585e-05
-2.55503e-06
-1.80459e-05
-3.7236e-05
-1.19119e-06
2.56187e-05
7.78577e-07
-2.74654e-05
2.12453e-05
2.14401e-05
-5.18257e-06
2.06898e-05
-7.96164e-05
-7.33806e-05
2.17738e-05
1.9089e-05
1.85913e-05
-6.44888e-06
1.7228e-05
-7.03163e-05
-2.03938e-05
-3.4818e-05
-2.09466e-05
-2.14086e-05
3.17862e-05
1.69363e-05
3.29561e-06
-1.90031e-05
1.50856e-06
2.17595e-05
-1.79323e-05
4.67047e-06
1.11803e-05
-2.08833e-05
-1.55166e-05
-2.04644e-05
1.42285e-05
1.20863e-05
-2.07606e-05
-2.0571e-05
4.91182e-06
-2.08535e-05
9.97383e-06
1.04518e-05
-2.07825e-05
3.74126e-06
-1.97531e-05
1.55956e-05
1.82039e-05
-1.99338e-05
1.7364e-05
-2.00734e-05
2.2358e-05
-1.96186e-05
1.76406e-06
-1.83626e-05
-2.00348e-05
-1.23753e-07
2.14353e-05
-2.69088e-05
-2.69661e-06
-2.01093e-05
-1.62757e-05
-8.12304e-05
7.69682e-07
2.7489e-05
-6.92328e-05
-9.50868e-05
2.27619e-05
1.40296e-05
2.23986e-05
2.32749e-05
-7.08241e-07
-2.24278e-05
-1.21554e-05
5.12085e-06
-1.15907e-05
8.85683e-07
-1.82598e-05
-1.4215e-05
1.18262e-05
-8.7245e-06
-1.32898e-05
-5.73027e-06
-1.31459e-05
1.28481e-05
1.91751e-05
-5.77735e-06
-2.03415e-05
-4.95506e-06
-1.3067e-05
-5.76178e-06
-8.09175e-06
-1.60523e-05
1.0043e-05
-9.8042e-06
-6.1915e-06
1.01825e-05
-2.042e-05
-6.9885e-06
-1.27647e-05
-6.12656e-06
-2.0121e-05
7.86952e-06
2.77376e-06
-2.14623e-05
-8.6789e-05
3.5529e-05
1.03223e-05
8.56872e-05
3.32104e-07
2.51131e-06
2.17448e-05
1.73894e-05
-1.11552e-05
3.64966e-06
-6.4969e-06
1.33025e-05
-2.39682e-05
-5.68892e-07
-2.90556e-05
-1.11228e-06
-2.27682e-05
-1.3374e-05
1.16879e-05
-2.31714e-05
2.028e-06
2.41841e-05
-2.01732e-05
-8.78354e-05
-7.13344e-06
9.3314e-05
1.71585e-06
-7.55041e-05
1.50488e-06
1.25012e-06
1.32711e-06
-2.24796e-05
1.71561e-06
-1.93983e-05
-7.94084e-06
-5.15894e-05
-7.77037e-05
6.50102e-06
-7.17323e-06
-5.95098e-05
-7.77328e-05
7.01327e-06
-7.3391e-06
-5.30241e-05
-7.57658e-05
8.62537e-05
-7.91589e-06
-8.06339e-05
-5.92082e-05
6.24601e-06
8.61003e-05
-8.05049e-05
-7.01001e-06
-6.79599e-05
-7.90275e-05
-6.43471e-05
-5.94493e-05
-7.94971e-05
5.11742e-05
-6.92361e-06
-5.41201e-05
5.61258e-06
-7.51803e-05
1.62062e-05
3.26482e-06
-1.90396e-05
1.59616e-05
3.94077e-06
-2.03992e-05
2.00504e-05
-1.48379e-05
-2.05853e-05
5.15793e-06
1.40568e-05
-1.45065e-05
4.80099e-06
1.34281e-05
1.9819e-05
-1.98638e-05
4.44577e-06
4.28581e-06
-9.06668e-06
1.00977e-05
4.56654e-05
-7.55937e-05
-1.27958e-05
3.85608e-05
3.97396e-06
4.54374e-06
-8.02333e-05
4.44372e-06
4.7987e-06
1.15976e-05
4.92084e-06
-2.02989e-05
1.03126e-05
5.27134e-06
-2.03928e-05
2.1694e-05
1.10686e-06
-1.85635e-05
1.40006e-06
-1.88175e-05
-8.24426e-05
1.35297e-06
1.35073e-06
-7.17519e-05
9.83086e-07
1.19873e-06
-8.98974e-06
9.26346e-05
-6.28765e-05
9.18326e-05
-7.80402e-06
-7.17658e-05
4.03119e-05
-8.17361e-06
-4.48541e-05
-7.48087e-05
4.30243e-05
-4.67773e-05
-7.36685e-06
-7.26117e-05
-9.73074e-06
3.06323e-05
-8.07393e-05
3.30228e-05
-1.06629e-05
-7.80658e-05
-8.94416e-06
3.53482e-05
-7.56842e-05
3.82583e-05
-8.60594e-06
-7.32991e-05
-4.98233e-05
-7.68643e-05
-8.59766e-06
9.7032e-06
1.00678e-05
0.000355695
-4.10639e-05
-0.000312341
-0.000222598
8.38303e-05
-7.975e-05
-5.75082e-05
9.0842e-05
-6.06273e-05
8.3382e-06
-3.73448e-05
0.000124778
8.84065e-06
-0.000165852
-0.000290546
3.74209e-05
-4.21158e-05
-7.33722e-05
-4.74526e-05
9.05287e-06
9.86528e-06
-0.000252089
0.000412256
-0.000244552
-0.000276981
-0.000251383
-0.000249392
-0.000234884
0.00222971
0.000515792
5.48689e-05
5.5449e-05
5.13638e-05
0.00154427
-6.42492e-05
0.000348017
-0.000145386
-0.00015802
-0.000166168
-0.00017948
-7.09775e-05
-6.61667e-05
-6.58082e-05
-0.000301171
-0.000292096
-0.000293513
-0.000303104
0.000116786
-4.35652e-05
-0.000279181
-0.000158042
3.85988e-05
-4.50411e-05
-0.000285786
8.13285e-05
9.4184e-06
9.92734e-06
-0.000296495
9.18574e-06
8.91928e-06
8.66926e-05
0.000341299
-4.74243e-05
-0.000298802
-0.000211235
0.000398108
-5.4415e-05
-0.000239113
2.85626e-05
-7.96692e-05
3.26667e-05
-7.42273e-05
1.00741e-05
-8.01134e-05
2.39116e-05
-8.12241e-05
2.45266e-05
1.3698e-05
-1.12293e-05
-7.81767e-05
2.61756e-05
-8.1425e-06
-2.02858e-05
4.92053e-06
6.69549e-06
4.4724e-06
-7.96478e-05
5.22855e-06
4.41736e-06
4.95828e-06
2.96868e-05
-2.06158e-05
4.98355e-06
-9.07093e-06
8.43391e-06
-2.09088e-05
5.47492e-06
-2.03038e-05
5.40482e-06
-8.56667e-06
7.32711e-06
-2.01639e-05
-2.03891e-05
-8.51869e-05
-1.60158e-05
1.75976e-05
9.02512e-05
-2.37033e-05
2.42436e-05
-2.14921e-05
-2.31042e-05
-2.09597e-05
-5.44095e-07
-2.16992e-05
-3.97708e-07
-3.86891e-05
-2.49779e-05
2.50202e-05
-1.5286e-06
-2.3867e-05
-2.38721e-05
-1.04961e-06
-2.39114e-05
-1.44134e-06
-1.73015e-05
-2.51239e-05
2.20114e-05
-2.66474e-05
2.57829e-05
3.23023e-05
-3.00614e-05
-2.48706e-05
4.75711e-06
-1.96498e-05
2.63624e-05
5.76395e-06
-2.08648e-05
-2.29912e-05
2.54828e-05
4.88318e-06
-1.9407e-05
7.23384e-06
-2.11119e-05
2.96476e-05
-1.8212e-05
-2.43014e-05
1.64381e-05
-9.34918e-06
4.64367e-06
5.00507e-06
2.5934e-05
1.60097e-05
-3.25219e-05
-2.52007e-05
-2.52332e-05
4.58693e-07
1.84579e-06
1.03889e-06
-0.000101489
-6.95943e-06
0.000102838
-1.54194e-05
2.53153e-05
1.65709e-05
-3.55363e-05
-8.30072e-05
0.000121562
-2.65382e-05
-2.62443e-05
0.000111931
-2.66529e-05
-8.94082e-05
-2.51906e-05
-2.55702e-05
2.72946e-05
5.22837e-06
-2.29614e-05
6.48614e-06
-2.31928e-05
1.26834e-05
-1.09918e-05
-8.93448e-05
0.000127732
7.76925e-05
-1.18638e-05
3.92572e-06
4.09046e-06
0.000117105
3.50568e-06
4.03515e-06
-9.92443e-05
2.47181e-05
-2.69766e-05
7.9267e-06
-2.59846e-05
6.29212e-06
2.54999e-05
2.55349e-05
-2.5513e-05
-2.89679e-05
6.78118e-06
2.58547e-05
-2.7751e-05
5.82706e-06
-3.9084e-06
-2.60139e-05
-2.59947e-05
5.92195e-06
-0.000105959
-1.04266e-05
0.000110873
3.91834e-06
3.60438e-06
3.53449e-06
3.08539e-06
-0.000107522
-2.62398e-05
-2.33331e-05
-3.08141e-06
2.87641e-06
-2.56678e-05
-2.01077e-05
-2.57816e-05
-2.12778e-05
2.84376e-06
-1.94601e-05
-2.11856e-05
-3.60333e-06
4.53459e-06
-2.63933e-05
-2.47519e-05
-2.80444e-06
2.38606e-05
2.17621e-06
-1.89522e-05
9.90045e-05
-7.91619e-06
7.6027e-06
-8.06521e-05
2.5653e-05
2.58554e-06
-2.17913e-05
-0.000106466
-0.000108165
-5.06853e-05
0.000486842
-0.000311693
-9.61405e-05
1.0695e-05
-6.89699e-05
9.70458e-06
-6.46484e-05
-9.87335e-05
-7.13571e-05
-6.7653e-05
9.46258e-06
-4.51741e-05
0.000565579
9.88411e-06
-0.0003708
8.56006e-06
9.16265e-06
0.000305729
-0.000105184
-0.000104922
9.11873e-06
-3.85066e-05
0.000475082
-0.000100573
8.11492e-06
-0.000392307
-0.000101925
8.20676e-06
8.99775e-06
0.000119887
-9.20688e-05
-2.53774e-05
2.6149e-06
-2.14927e-05
-8.25641e-06
-8.42557e-05
8.29226e-06
2.47242e-06
-1.95428e-05
-9.85159e-05
-9.25398e-06
-7.99695e-05
-8.46066e-06
-7.7078e-05
2.48081e-05
-2.17554e-05
-2.13079e-05
2.51866e-05
-1.46819e-05
-1.9887e-05
-2.58855e-05
-2.04363e-07
-8.55263e-07
-2.5721e-05
-4.2871e-06
-1.94262e-05
-1.90272e-05
-1.9261e-05
-1.90503e-05
-7.15778e-05
-3.0283e-06
2.11131e-05
2.0515e-05
-7.90743e-05
-7.5378e-05
2.15466e-05
2.16942e-05
2.24257e-05
-1.98722e-05
2.69106e-07
-1.52165e-05
-1.09312e-06
1.58859e-05
-2.02384e-05
-1.71125e-05
1.75239e-05
-2.98416e-05
-8.26645e-08
-3.80501e-07
-1.59053e-05
-1.97943e-05
-1.72453e-05
-2.04727e-05
2.65343e-05
-2.01439e-05
-1.61953e-05
-2.0171e-05
1.49725e-05
1.28221e-05
-2.02109e-05
-2.00715e-05
1.09562e-05
-2.01421e-05
-2.87913e-05
2.58181e-05
-2.04257e-05
1.0826e-06
-2.57213e-05
2.52188e-05
1.76772e-05
1.09601e-07
-1.76123e-05
-2.02842e-05
-3.73149e-07
-1.64853e-05
2.14972e-06
-3.15494e-05
-1.42461e-05
-1.46323e-05
-1.93417e-05
-7.28432e-05
3.31804e-06
-9.34149e-05
-3.48783e-06
-8.01421e-05
-8.8342e-06
-2.74757e-06
-1.05675e-05
2.1026e-05
2.11407e-05
3.61043e-05
2.25173e-05
-2.18332e-05
2.33838e-05
-1.3398e-07
1.18675e-06
-3.826e-05
-5.15021e-06
3.05314e-05
1.72995e-07
-2.19038e-05
2.34832e-05
-1.0128e-05
7.92636e-06
-9.38976e-06
1.02067e-06
-1.41021e-05
-1.12619e-05
-9.28123e-06
-1.35466e-05
9.68168e-06
1.28713e-05
-6.61912e-06
-1.37456e-05
-1.06604e-05
9.63169e-07
-1.34189e-05
-3.59703e-06
-5.07986e-06
-2.50965e-05
9.28769e-06
1.23378e-05
1.20679e-05
-6.91186e-05
-9.83464e-06
-6.68653e-06
-2.23983e-05
-1.27121e-05
-6.66632e-06
-2.2699e-05
-1.22259e-05
-1.5626e-05
-8.00999e-06
7.66748e-05
-7.21645e-06
1.04849e-05
-1.43656e-05
2.23737e-07
-2.57598e-05
-5.50787e-07
-2.2482e-05
-2.29143e-05
-2.00549e-05
1.70548e-06
2.28061e-05
-8.63303e-05
-6.13966e-06
9.10872e-05
1.14197e-06
-7.78843e-05
7.6947e-07
1.01868e-06
8.32382e-07
-1.98328e-05
-2.2338e-05
1.36285e-06
-2.28837e-05
2.37276e-05
-2.09636e-05
1.31518e-06
-2.231e-05
-2.00957e-05
1.01637e-06
-7.42573e-06
-7.62087e-05
-5.57624e-05
-7.47606e-06
-4.88071e-05
-7.36141e-05
5.31874e-06
-6.2857e-06
-6.29846e-05
-7.60631e-05
5.53695e-06
-6.31626e-06
-5.62811e-05
-7.36967e-05
5.1107e-06
-6.24914e-06
-4.98927e-05
-7.15122e-05
8.45375e-05
-7.42911e-06
-7.89416e-05
-6.43851e-05
5.69403e-06
8.44388e-05
-7.34645e-05
-7.83374e-05
-6.29033e-06
-6.15893e-05
-7.56376e-05
-7.76021e-05
-6.68971e-05
5.34133e-08
4.99141e-07
-5.60836e-05
-7.44488e-05
6.74567e-05
-1.69713e-05
-2.16606e-05
-7.81789e-05
4.77844e-05
-5.08167e-06
-5.00867e-05
2.11717e-06
-6.9914e-05
2.77702e-05
2.28316e-05
5.75304e-05
-7.1028e-05
-2.23633e-05
2.15733e-05
1.98476e-05
1.27026e-05
-1.99416e-05
5.42227e-06
1.22152e-05
5.30526e-06
-1.07532e-05
3.87968e-05
1.27102e-05
-7.53222e-05
-6.99147e-06
5.40219e-06
4.38844e-05
-7.01049e-05
1.98405e-05
1.16909e-05
-2.0389e-05
6.00403e-06
1.07777e-05
5.68395e-06
2.16857e-05
-1.85485e-05
7.65186e-07
-1.91591e-05
1.04e-06
-7.57489e-05
-8.03547e-05
4.54175e-07
1.17938e-06
1.02546e-06
1.0553e-06
2.14606e-05
4.2982e-07
-1.89407e-05
-1.95261e-05
7.16371e-07
-8.42612e-06
9.03549e-05
-6.80719e-05
8.95117e-05
-7.61084e-05
-6.86873e-06
3.83949e-05
-7.56447e-06
-4.23514e-05
-7.0655e-05
4.08514e-05
-4.39647e-05
-6.37204e-06
-6.82084e-05
-9.47534e-06
2.97712e-05
-7.63502e-05
3.26175e-05
-9.63335e-06
-7.35452e-05
-8.35976e-06
3.39151e-05
-7.1451e-05
3.69517e-05
-7.61148e-06
-6.87796e-05
-8.22742e-06
-5.37831e-05
-7.49883e-05
-8.0319e-06
-4.63016e-05
-7.21228e-05
-3.56331e-05
7.53985e-06
-0.00019578
-0.000279177
8.59708e-06
8.86437e-06
0.000341594
-3.85831e-05
-0.000298679
6.98475e-06
9.31191e-06
-0.000260688
8.23374e-05
-7.79453e-05
-6.07325e-05
8.89139e-05
-6.67658e-05
7.90332e-06
-3.29454e-05
0.000111538
8.37782e-06
-0.000142734
7.22804e-06
-0.0002577
7.78548e-06
3.55012e-05
-3.94292e-05
-6.91059e-05
-4.44248e-05
1.03376e-05
1.00272e-05
9.87948e-06
8.21769e-06
0.000392955
-0.000297487
0.000462023
-5.31013e-05
-0.000291907
-8.76733e-05
0.00203458
0.000471333
-0.000203958
-0.000224732
-0.000225833
-0.000219854
-9.39223e-05
-9.15443e-05
-9.11118e-05
5.7019e-05
-0.00045177
-7.39655e-05
-0.000305205
0.000522541
5.94048e-05
0.000524302
-0.000314057
-6.28163e-05
-0.00027883
-0.000353722
-0.00133103
0.000614192
0.00303428
0.000265988
0.000118716
-0.000281695
0.000337278
-0.000159041
-7.95098e-05
0.00160691
-7.37419e-05
-0.000301993
2.58994e-05
-6.73454e-05
-6.95677e-05
-6.84526e-05
-0.000301432
-0.00031127
-0.000312053
0.000221056
-0.000295559
6.20781e-05
0.000359618
-6.71326e-05
-0.000204388
-5.1235e-05
0.000323625
-0.000195927
-0.000281911
-5.79054e-05
-0.000189329
-0.000265728
0.000375796
-0.000223989
-0.000291942
0.000342516
7.85843e-05
-8.14208e-05
9.818e-05
-0.000121402
-0.000253211
-7.14312e-05
6.98057e-05
-0.000257516
-7.18617e-05
-4.64219e-05
0.000107736
-0.000144189
-0.000261863
0.000100642
-0.000136794
-5.57779e-05
-0.000246587
4.76377e-05
6.98795e-05
-5.78428e-05
-0.000252546
7.52121e-05
-0.000267986
0.000102479
-3.69012e-05
-0.000245306
-0.000132399
-4.10034e-05
-0.000266702
-0.000184772
3.44772e-05
-3.80964e-05
-0.000250613
7.09253e-05
8.54088e-06
-0.000262595
8.18023e-06
9.04407e-06
8.83099e-06
7.75191e-05
-2.73973e-05
9.84426e-06
-7.55994e-05
2.22243e-05
-7.4956e-05
0.000327163
-4.44102e-05
-0.000285226
-0.000247346
0.000378033
-5.12732e-05
-0.000283134
-6.99498e-05
3.12412e-05
-7.67694e-05
2.39314e-05
1.19555e-05
-1.03775e-05
-7.35055e-05
2.6368e-05
-7.2818e-06
-1.80968e-05
1.88879e-05
-8.13364e-05
1.89128e-05
-1.04333e-05
-1.86883e-05
6.22171e-06
8.45985e-06
1.42845e-05
-7.44111e-05
3.12305e-05
-8.93914e-06
5.93941e-06
6.23305e-06
1.94043e-05
-1.97272e-05
5.99797e-06
5.89738e-06
-9.12083e-06
-1.95371e-05
-1.98152e-05
-2.37216e-05
2.40276e-05
-2.16217e-05
-2.3089e-05
-2.12792e-05
-1.50798e-05
5.0079e-07
-3.69843e-05
-2.97395e-06
-2.51172e-05
-2.47199e-05
-9.77321e-07
-2.36072e-05
-2.45935e-05
-5.0804e-07
-2.30292e-05
2.45127e-05
-2.14476e-05
-2.77305e-05
-2.91915e-05
2.64008e-05
3.19657e-05
-3.17098e-05
-2.64706e-05
-9.21324e-05
0.000121016
1.20962e-05
7.73134e-05
-1.76295e-05
2.16335e-05
-1.79642e-05
1.57098e-05
3.13338e-06
-2.32657e-05
5.80981e-06
-2.31934e-05
-1.90433e-05
1.40048e-05
1.10806e-05
1.99383e-05
-3.18958e-05
2.42527e-05
-1.73465e-05
-2.3281e-05
6.66045e-06
-3.08659e-05
2.88886e-05
-3.4948e-05
3.1308e-05
-2.49202e-05
-2.47688e-05
-1.42127e-06
-2.82068e-07
-1.85078e-06
-1.73887e-06
-2.44267e-05
0.00010656
-3.11916e-06
-0.000101214
-2.43075e-05
9.94419e-05
-2.40855e-05
-8.79585e-05
-9.7721e-06
3.6673e-06
2.26816e-06
-0.00010841
4.58531e-06
4.0667e-06
-1.61952e-05
-3.89856e-05
1.58236e-05
0.000129978
-8.59797e-05
7.60341e-05
-9.65912e-05
0.000111509
-0.000105634
-2.57694e-05
-2.11654e-05
-2.56578e-05
-2.46688e-05
2.61132e-05
5.17768e-06
-2.54307e-05
6.17029e-06
-1.0442e-05
1.27053e-05
0.00012618
-0.000100683
-9.64572e-06
9.49159e-06
-9.23002e-05
0.00013888
8.13057e-05
-2.60384e-05
2.71879e-05
-2.73402e-05
5.02758e-06
-2.76805e-05
6.10109e-06
-1.01271e-05
0.000117392
3.45167e-06
3.5382e-06
2.69226e-06
3.15591e-06
-0.000108475
2.63203e-05
-3.06476e-05
-2.63234e-05
5.60075e-06
2.43141e-05
-1.68059e-05
-2.40082e-05
-2.92942e-05
2.66394e-05
4.82834e-06
3.11296e-05
-3.18544e-05
2.7348e-05
-2.67687e-05
-3.18744e-05
4.18168e-06
2.78653e-05
-2.99587e-05
3.23267e-06
-7.39106e-06
-0.00010916
0.00011254
2.20157e-06
1.96847e-06
1.60338e-06
2.18613e-06
-0.00011147
-2.2101e-05
9.77061e-05
-7.25761e-06
5.91637e-06
-8.59311e-05
0.000559658
-0.000349407
0.00029082
-9.94007e-05
-0.000103841
-9.89705e-05
-4.60191e-05
0.000468553
-0.000371413
-9.91079e-05
-9.41054e-05
1.00714e-05
-7.39993e-05
9.00608e-06
-6.88191e-05
-9.68917e-05
-7.74893e-05
-7.36444e-05
-0.000555776
-0.000240976
4.17607e-05
-0.000552698
-0.00209541
0.00296156
3.9224e-05
3.14438e-05
3.88136e-05
0.0014573
-8.91259e-05
0.00013719
8.21521e-05
-4.03928e-05
6.19231e-06
-0.000442218
8.08431e-06
8.06569e-06
8.7747e-06
-0.000128437
9.09297e-06
0.000139475
-0.000100697
-9.58087e-05
-7.17948e-06
-8.63311e-05
6.38832e-06
0.000110257
-0.000104667
-0.000101457
-0.000392746
-3.23833e-05
0.000449358
6.53034e-06
-0.000441931
6.49947e-06
4.87818e-06
7.48586e-06
-9.73485e-05
-8.32523e-05
-8.47176e-06
0.000100187
7.83797e-06
0.000116754
-0.000106316
0.000118498
-9.19733e-05
-8.44886e-05
-7.68371e-06
-1.75082e-05
-2.46818e-05
-2.43372e-05
3.76445e-07
-2.48314e-05
-1.84956e-06
1.57567e-05
1.576e-07
-3.6921e-07
-1.63927e-05
-1.85784e-05
3.00402e-07
-6.09356e-07
-1.88668e-05
1.74414e-05
-1.77202e-05
-1.87153e-05
-1.89273e-05
-2.19839e-06
-1.83656e-05
-1.93763e-05
-1.89307e-05
-1.90636e-05
-7.05678e-05
-1.21474e-06
1.96457e-05
2.09857e-05
-7.86661e-05
-7.48562e-05
2.05058e-05
2.154e-05
-2.01004e-05
2.24058e-05
2.23659e-05
-2.01693e-05
-1.09789e-06
-1.62332e-05
-1.98249e-05
-1.70677e-05
-2.76071e-05
-2.91203e-07
-1.59141e-05
-1.93231e-05
-1.68595e-05
-1.99513e-05
1.35268e-05
-2.0079e-05
-1.99657e-05
1.18179e-05
-2.06197e-05
-6.02994e-06
-1.92539e-05
8.06352e-07
-2.4685e-05
1.63813e-05
6.70407e-07
-1.85246e-05
-1.88118e-05
2.77391e-07
-1.44837e-05
-1.13114e-05
-8.96505e-06
2.32152e-06
-1.18572e-05
-1.64079e-05
9.93572e-07
-1.93262e-05
-1.79412e-05
4.69209e-06
-1.90732e-05
-1.86752e-05
-1.03685e-05
-2.44093e-05
-7.4359e-05
-4.70798e-06
-4.86448e-07
-1.88713e-05
1.44192e-05
-1.8017e-05
2.01891e-05
-2.00793e-05
3.40167e-06
-7.97725e-05
-2.31085e-06
-7.72624e-05
-2.92229e-06
-2.24252e-06
-3.39491e-06
8.43619e-05
-1.29503e-05
1.85351e-05
1.16222e-05
-1.28395e-05
-1.95474e-05
-1.18959e-05
1.36887e-06
2.15493e-05
-3.30326e-06
-2.05974e-05
2.20084e-05
2.09021e-05
4.04304e-07
-2.06959e-05
2.18994e-05
1.648e-06
-5.83853e-06
2.35841e-05
4.00013e-07
2.27635e-05
-1.63724e-05
1.1222e-05
1.46e-06
-2.3835e-05
-9.83781e-06
-4.11196e-08
-2.20912e-05
-9.34402e-06
-4.59405e-08
1.01418e-06
-1.18195e-05
-9.80108e-06
8.04268e-06
-1.21068e-05
-2.93832e-06
-6.22679e-06
-9.79178e-06
-7.38599e-06
-1.36282e-05
8.40755e-06
-7.40733e-06
-1.45987e-05
-1.46149e-05
8.29172e-06
-2.20029e-05
2.13492e-05
2.30901e-05
-2.23387e-05
1.04472e-06
0.00034817
2.22719e-06
1.97963e-06
-0.000305311
-0.000332725
-2.21873e-05
2.10801e-06
2.53243e-06
2.04212e-05
-2.20429e-05
-2.03448e-05
7.33036e-07
-2.24501e-05
2.27195e-05
1.13468e-06
-2.2074e-05
7.81727e-07
-2.36145e-05
-2.17549e-05
-2.3132e-05
-2.12533e-05
-6.78709e-06
-5.25063e-05
-7.20385e-05
-6.96409e-06
-7.45756e-05
-5.94498e-05
-6.83626e-06
-4.58591e-05
-6.95194e-05
4.37462e-06
-6.5748e-05
-5.42039e-06
-7.45271e-05
4.40761e-06
-5.47919e-06
-5.9527e-05
-7.17456e-05
4.1799e-06
-5.40737e-06
-5.26811e-05
-6.96808e-05
3.82758e-06
-5.36969e-06
-4.68193e-05
-6.71157e-05
8.28761e-05
-6.74375e-06
-7.02302e-05
-7.65786e-05
-7.33325e-05
-6.36496e-05
4.21357e-07
3.45127e-07
-5.77136e-05
-7.15727e-05
-6.75895e-05
-7.65032e-05
4.92138e-07
2.80639e-07
-5.27977e-05
-2.40789e-08
3.13082e-07
-6.89721e-05
5.19251e-05
-1.41758e-05
-1.30524e-05
-1.60641e-05
-1.93633e-05
-6.53327e-05
4.57008e-05
-4.8274e-06
-4.70212e-05
2.13098e-06
-6.58975e-05
2.3738e-05
2.73141e-05
4.86565e-05
-6.97997e-05
4.58917e-05
-5.95929e-05
1.85474e-05
-8.93287e-06
3.83653e-05
8.4943e-06
-6.93651e-05