/*--------------------------------*- C++ -*----------------------------------*\
  =========                 |
  \\      /  F ield         | OpenFOAM: The Open Source CFD Toolbox
   \\    /   O peration     | Website:  https://openfoam.org
    \\  /    A nd           | Version:  12
     \\/     M anipulation  |
\*---------------------------------------------------------------------------*/
FoamFile
{
    format      ascii;
    class       surfaceScalarField;
    location    "0";
    object      phi;
}
// * * * * * * * * * * * * * * * * * * * * * * * * * * * * * * * * * * * * * //

dimensions      [0 3 -1 0 0 0 0];

internalField   nonuniform List<scalar> 
233250
(
-0.0895836
0.0503343
0.169633
-0.0262911
0.0331328
0.0982501
-0.119517
0.0227889
0.347503
-0.143495
0.127533
0.0902436
-0.0103582
0.0214368
0.0574603
-0.0466408
0.0187385
0.229952
-0.0570943
0.090294
0.065763
-0.126564
0.0124679
0.442336
-0.208296
0.0639499
0.214892
-0.161984
0.181633
0.05358
-0.00515834
0.0142937
0.0360134
-0.0227926
0.01431
0.14819
-0.0265613
0.0608151
0.0446925
-0.0543441
0.011165
0.310132
-0.108383
0.0535396
0.166793
-0.0730049
0.134143
0.0439345
-0.128831
0.00734637
0.496855
-0.22641
0.0361308
0.292077
-0.244623
0.097451
0.139206
-0.169269
0.218796
0.033548
-0.00299394
0.00982815
0.0239255
-0.0129289
0.0106436
0.0983596
-0.0142877
0.0413532
0.0304483
-0.0291753
0.00931785
0.210674
-0.0604403
0.0414302
0.119632
-0.0373234
0.0933403
0.0330466
-0.0575567
0.00682315
0.359294
-0.129447
0.0325027
0.234206
-0.143993
0.0827995
0.117506
-0.0812257
0.166075
0.029248
-0.129741
0.00432493
0.529518
-0.232723
0.0215228
0.339699
-0.270116
0.0567999
0.198357
-0.261012
0.123124
0.0913991
-0.172516
0.243905
0.0207764
-0.0019054
0.00692243
0.0165355
-0.0080492
0.00785385
0.0674305
-0.00857415
0.0287102
0.0211414
-0.0177832
0.00746005
0.14541
-0.0362879
0.031065
0.0844954
-0.0213167
0.0648107
0.0241232
-0.0324099
0.00597543
0.251983
-0.0784849
0.0272471
0.173895
-0.0869881
0.064982
0.0909856
-0.0440657
0.118487
0.0234617
-0.0590308
0.00408799
0.389692
-0.138587
0.0200167
0.277645
-0.174985
0.0513561
0.170519
-0.164016
0.105809
0.0807763
-0.0855941
0.188439
0.0187068
-0.130155
0.00229089
0.548876
-0.235344
0.0127252
0.369171
-0.279589
0.0343147
0.237285
-0.29114
0.0736959
0.134438
-0.269035
0.141804
0.0580435
-0.174079
0.26008
0.0114282
-0.00128152
0.00496331
0.0117265
-0.00531596
0.00579234
0.0474131
-0.00553888
0.020324
0.0149593
-0.0116355
0.00582739
0.102405
-0.0231642
0.0230338
0.0599832
-0.0132422
0.0455684
0.01749
-0.0206241
0.00501493
0.178654
-0.0502626
0.0218888
0.126364
-0.0548006
0.0492371
0.0678815
-0.0263264
0.0838028
0.0180136
-0.0340825
0.00367735
0.278672
-0.0878144
0.0175592
0.210898
-0.114398
0.0433073
0.134982
-0.104446
0.0840781
0.065824
-0.0481825
0.136873
0.015605
-0.0597452
0.00218453
0.408003
-0.142861
0.0120339
0.305192
-0.188984
0.0319732
0.206422
-0.201815
0.066939
0.120064
-0.175304
0.122861
0.0526238
-0.0879356
0.20316
0.0104618
-0.130339
0.000718087
0.559152
-0.236548
0.0067528
0.386906
-0.283663
0.0204213
0.26224
-0.302898
0.0451461
0.164245
-0.301996
0.086633
0.087117
-0.273128
0.154423
0.0323369
-0.17481
0.269156
0.00365547
-0.000892032
0.00360294
0.00845466
-0.00364872
0.00428221
0.0339586
-0.00375257
0.0146125
0.0107472
-0.0079449
0.00448625
0.0733227
-0.0154817
0.0170379
0.0430167
-0.00872142
0.0325014
0.0127057
-0.0139685
0.00408252
0.128468
-0.0335948
0.0171395
0.0916312
-0.0359753
0.0367701
0.0499562
-0.0168547
0.0596594
0.0135328
-0.0222466
0.00317808
0.201104
-0.0585267
0.014759
0.156496
-0.0764941
0.0349669
0.10273
-0.0683386
0.0643623
0.0512151
-0.0297104
0.0982129
0.0123979
-0.0349523
0.00199393
0.29516
-0.0926904
0.0108328
0.235228
-0.12892
0.0281191
0.166022
-0.138769
0.0567795
0.0992355
-0.115485
0.0985798
0.044298
-0.050606
0.149327
0.00892319
-0.060076
0.000687335
0.417806
-0.14495
0.00644074
0.321998
-0.195685
0.0193268
0.22986
-0.219484
0.0421459
0.147802
-0.217538
0.078978
0.07949
-0.181589
0.134522
0.0297227
-0.0890975
0.211521
0.00337016
-0.130392
-0.000718087
0.562379
-0.237089
0.00211818
0.396388
-0.28557
0.0108698
0.277537
-0.308118
0.0270594
0.183958
-0.315316
0.0537022
0.108004
-0.307756
0.0956984
0.0491102
-0.275104
0.161704
0.010399
-0.175025
0.272081
-0.00365547
-0.000634852
0.00263864
0.00616377
-0.00257003
0.00317423
0.0246324
-0.00262222
0.0106244
0.00780627
-0.00557668
0.00342466
0.0531664
-0.0106923
0.012619
0.0311627
-0.00597368
0.0234733
0.00927482
-0.00979309
0.00325268
0.093438
-0.0231746
0.0132168
0.0667235
-0.0244383
0.0273274
0.0366538
-0.0113137
0.0428954
0.0100671
-0.0154119
0.00266069
0.146778
-0.0404185
0.0120297
0.115469
-0.0524019
0.0274859
0.0768232
-0.0460195
0.0484312
0.0388653
-0.0194715
0.0706542
0.00956079
-0.0231471
0.0017529
0.21537
-0.0632761
0.00936894
0.17708
-0.0895117
0.0236931
0.128361
-0.0960597
0.0460917
0.0782903
-0.0776658
0.0761138
0.0354952
-0.0318532
0.108238
0.00723896
-0.0353718
0.000631443
0.304113
-0.0952406
0.0058809
0.250403
-0.136627
0.0174183
0.186871
-0.157379
0.0371677
0.123529
-0.154597
0.0673235
0.0675502
-0.122137
0.108672
0.0255007
-0.0518791
0.156522
0.00290352
-0.0601732
-0.000687335
0.420895
-0.145922
0.00202776
0.331051
-0.199005
0.0103714
0.244388
-0.22814
0.0256312
0.166397
-0.237807
0.0502167
0.0990538
-0.226551
0.0874692
0.0453377
-0.184777
0.1413
0.00961623
-0.0894492
0.21423
-0.00337016
-0.130339
-0.00229089
0.559152
-0.237247
-0.00211818
0.399374
-0.286435
0.00341372
0.285792
-0.310606
0.0144538
0.196257
-0.321381
0.032397
0.122157
-0.322075
0.059845
0.0614449
-0.310607
0.101053
0.0158789
-0.275693
0.164082
-0.010399
-0.17481
0.269156
-0.0114282
-0.00045861
0.0019444
0.0045275
-0.00184261
0.00235903
0.0180288
-0.00187033
0.00778831
0.00571606
-0.00398854
0.00260008
0.0388952
-0.00755738
0.00936471
0.0227573
-0.00420084
0.0171135
0.00680264
-0.00701151
0.00255284
0.0685481
-0.0163549
0.0101008
0.0488649
-0.0170405
0.0203023
0.0269358
-0.00784079
0.0311385
0.0074631
-0.0110115
0.0021734
0.108047
-0.0285995
0.00959341
0.0852425
-0.0366682
0.0212546
0.0570627
-0.0317811
0.0361856
0.0291252
-0.0132813
0.051167
0.00724633
-0.0162596
0.00149309
0.158733
-0.0446562
0.00784884
0.132339
-0.0632415
0.0193516
0.0973334
-0.067322
0.0363879
0.0601288
-0.0533737
0.0576602
0.0275671
-0.021219
0.0784693
0.0056777
-0.023599
0.000559508
0.223246
-0.0659217
0.00517211
0.190248
-0.0970663
0.0150834
0.146129
-0.112945
0.0314048
0.0986146
-0.109776
0.054913
0.0546702
-0.0836534
0.0844364
0.0208126
-0.0330325
0.11413
0.00237885
-0.0354971
-0.000631443
0.306952
-0.0964742
0.00186332
0.258683
-0.140695
0.00947581
0.200035
-0.167414
0.0231314
0.140181
-0.176206
0.0443952
0.0848565
-0.16433
0.0748349
0.0391669
-0.125681
0.114604
0.00832294
-0.0522753
0.158874
-0.00290352
-0.060076
-0.00218453
0.417806
-0.146208
-0.00202776
0.333911
-0.20056
0.0032688
0.252279
-0.232487
0.0137972
0.178104
-0.247929
0.0307117
0.11245
-0.248523
0.0560308
0.0569398
-0.23121
0.0925054
0.0147355
-0.185752
0.143521
-0.00961623
-0.0890975
0.211521
-0.0104618
-0.130155
-0.00432493
0.548876
-0.237089
-0.0067528
0.396388
-0.286688
-0.00341372
0.288401
-0.311745
0.00454584
0.202958
-0.324316
0.0173628
0.131117
-0.328712
0.0362858
0.0699405
-0.32548
0.0635327
0.0199545
-0.311469
0.102821
-0.0158789
-0.275104
0.161704
-0.0323369
-0.174079
0.26008
-0.0207764
-0.000334723
0.0014395
0.00334397
-0.00133759
0.00175677
0.0132785
-0.00135288
0.00574252
0.0042098
-0.0028903
0.00196737
0.0286403
-0.00542937
0.00696476
0.0167244
-0.00300765
0.0125661
0.00501108
-0.00508951
0.00198147
0.0505869
-0.0117334
0.00767463
0.0359638
-0.0121137
0.0150968
0.0198472
-0.00555391
0.022775
0.00552844
-0.00800575
0.00174254
0.0800259
-0.0205766
0.00753452
0.0630914
-0.0260984
0.0162754
0.042322
-0.0223941
0.0269804
0.021707
-0.00930193
0.0373206
0.00544123
-0.0117618
0.00123943
0.11782
-0.0321841
0.00641486
0.0987535
-0.0453368
0.0154575
0.0731349
-0.0478063
0.0282304
0.0455021
-0.0373863
0.0432937
0.0210111
-0.0146452
0.0571412
0.00435805
-0.0167007
0.000480515
0.165446
-0.0471508
0.00440724
0.143404
-0.070015
0.0126506
0.111989
-0.0815124
0.0257124
0.0765761
-0.0783657
0.0435265
0.0428521
-0.0583237
0.0642944
0.0164124
-0.0222155
0.0831289
0.00188129
-0.0237365
-0.000559508
0.225762
-0.0672521
0.00165152
0.197544
-0.1013
0.0083397
0.157597
-0.12285
0.0200604
0.112909
-0.12959
0.0376091
0.0693022
-0.118702
0.0612637
0.0322141
-0.0869771
0.0893856
0.00685293
-0.0334081
0.116071
-0.00237885
-0.0353718
-0.00199393
0.304113
-0.0968434
-0.00186332
0.261314
-0.142672
0.00300499
0.207267
-0.172764
0.0126152
0.150828
-0.188023
0.0277519
0.0969186
-0.187961
0.0496305
0.0494986
-0.169586
0.0793197
0.0128275
-0.126791
0.116559
-0.00832294
-0.0518791
0.156522
-0.00892319
-0.0597452
-0.00408799
0.408003
-0.145922
-0.00644074
0.331051
-0.201019
-0.0032688
0.25478
-0.23454
0.00435417
0.184516
-0.253076
0.0165813
0.120994
-0.259651
0.0344198
0.0649996
-0.254141
0.0595293
0.0185769
-0.232649
0.0941721
-0.0147355
-0.184777
0.1413
-0.0297227
-0.0879356
0.20316
-0.0187068
-0.129741
-0.00734637
0.529518
-0.236548
-0.0127252
0.386906
-0.286435
-0.0108698
0.285792
-0.31208
-0.00454584
0.205084
-0.325673
0.00546843
0.136039
-0.331962
0.0194992
0.0753749
-0.332446
0.0386444
0.0227846
-0.326518
0.0647606
-0.0199545
-0.310607
0.101053
-0.0491102
-0.273128
0.154423
-0.0580435
-0.172516
0.243905
-0.033548
-0.00024613
0.00106895
0.00247872
-0.000979558
0.0013107
0.00982621
-0.000988221
0.00425296
0.00311443
-0.00211415
0.00148514
0.0211865
-0.00394613
0.00518911
0.0123487
-0.00218058
0.00927502
0.00370439
-0.00372919
0.00152568
0.0374939
-0.00851833
0.00581008
0.0265799
-0.00873327
0.0112424
0.0146677
-0.0039943
0.0167573
0.00409838
-0.00588262
0.00137677
0.0595025
-0.0149779
0.00585108
0.0468118
-0.0188206
0.012383
0.0313997
-0.0160254
0.0201109
0.0161426
-0.00663395
0.0273818
0.00406539
-0.00864229
0.00100801
0.0878668
-0.0235059
0.00514537
0.0737368
-0.0328716
0.0121549
0.0547467
-0.0343474
0.0216681
0.0341755
-0.0265966
0.0323921
0.0158458
-0.010341
0.0418364
0.00330202
-0.0121646
0.000402033
0.123396
-0.0343948
0.00365976
0.107819
-0.0510868
0.0103493
0.0849335
-0.0592311
0.0205784
0.0585055
-0.0563647
0.0338742
0.0329206
-0.0412893
0.0484628
0.0126552
-0.0154432
0.0607427
0.00145323
-0.0168372
-0.000480515
0.167608
-0.0484505
0.00141876
0.149633
-0.0740184
0.00711134
0.121661
-0.0904426
0.0168482
0.0884451
-0.0951561
0.0308639
0.0548052
-0.0858641
0.0487145
0.0255943
-0.0611608
0.06828
0.00544489
-0.0225386
0.0846751
-0.00188129
-0.023599
-0.0017529
0.223246
-0.0676573
-0.00165152
0.199879
-0.103437
0.00266476
0.163984
-0.128441
0.0111123
0.122222
-0.141327
0.024102
0.0797203
-0.140538
0.0421309
0.041013
-0.123702
0.0650831
0.0106327
-0.08804
0.0910256
-0.00685293
-0.0330325
0.11413
-0.00723896
-0.0349523
-0.00367735
0.29516
-0.0964742
-0.0058809
0.258683
-0.143265
-0.00300499
0.209571
-0.17538
0.00400483
0.156717
-0.194382
0.0151718
0.104713
-0.201021
0.0311347
0.0567837
-0.194375
0.0527928
0.0162596
-0.171244
0.0808088
-0.0128275
-0.125681
0.114604
-0.0255007
-0.050606
0.149327
-0.015605
-0.0590308
-0.00682315
0.389692
-0.14495
-0.0120339
0.321998
-0.20056
-0.0103714
0.252279
-0.235148
-0.00435417
0.186557
-0.255524
0.00523942
0.125709
-0.265364
0.0186281
0.0701883
-0.265854
0.0366718
0.0212649
-0.255888
0.0606957
-0.0185769
-0.23121
0.0925054
-0.0453377
-0.181589
0.134522
-0.0526238
-0.0855941
0.188439
-0.029248
-0.128831
-0.0124679
0.496855
-0.235344
-0.0215228
0.369171
-0.28557
-0.0204213
0.277537
-0.311745
-0.0144538
0.202958
-0.326073
-0.00546843
0.137606
-0.333475
0.00614841
0.0783769
-0.335881
0.0208026
0.0246045
-0.333592
0.039434
-0.0227846
-0.32548
0.0635327
-0.0614449
-0.307756
0.0956984
-0.087117
-0.269035
0.141804
-0.0913991
-0.169269
0.218796
-0.05358
-0.000181999
0.00079547
0.00184202
-0.000722038
0.000978937
0.00729391
-0.000727005
0.00315885
0.00231093
-0.00155687
0.00111956
0.0157289
-0.00289212
0.00387271
0.00915245
-0.00159505
0.00687361
0.00274687
-0.00275061
0.00116763
0.0278735
-0.00623795
0.00438752
0.0197078
-0.00636132
0.00838324
0.0108685
-0.00290402
0.0123843
0.00304198
-0.00435205
0.00107562
0.0443624
-0.0109931
0.00450678
0.0348124
-0.0137072
0.00938322
0.0233256
-0.011602
0.0150003
0.0120014
-0.00479203
0.0201875
0.0030309
-0.0064067
0.000806252
0.0657006
-0.0173171
0.00406665
0.0550981
-0.0240404
0.00944758
0.040916
-0.0249185
0.0165133
0.0255683
-0.019153
0.024202
0.0118787
-0.0074153
0.0307729
0.00248241
-0.0089933
0.00032931
0.0924032
-0.0253832
0.0029773
0.0810232
-0.0375827
0.00830757
0.0640801
-0.0433172
0.0162059
0.0442949
-0.040848
0.0260602
0.0249907
-0.0295927
0.0363613
0.0096243
-0.0109601
0.0445807
0.00110618
-0.0122913
-0.000402033
0.125205
-0.0355827
0.00118735
0.113
-0.0546422
0.00590889
0.0928836
-0.0668439
0.0137995
0.0681137
-0.0699688
0.0247487
0.0424438
-0.0623567
0.0380076
0.0198684
-0.0435798
0.0515938
0.00422311
-0.0157054
0.0619446
-0.00145323
-0.0167007
-0.00149309
0.165446
-0.0488531
-0.00141876
0.151641
-0.0761091
0.00229038
0.127126
-0.0957459
0.00948368
0.0963302
-0.105793
0.0202701
0.0635052
-0.104489
0.0346399
0.0328304
-0.0901878
0.0518555
0.00850467
-0.0620829
0.0696077
-0.00544489
-0.0222155
0.0831289
-0.0056777
-0.0231471
-0.00317808
0.21537
-0.0672521
-0.00517211
0.197544
-0.104089
-0.00266476
0.166032
-0.131274
0.00355362
0.127436
-0.147996
0.0133758
0.0865626
-0.153573
0.0270714
0.0473325
-0.146719
0.044874
0.0135664
-0.125309
0.066356
-0.0106327
-0.0869771
0.0893856
-0.0208126
-0.0318532
0.108238
-0.0123979
-0.0340825
-0.00597543
0.278672
-0.0952406
-0.0108328
0.250403
-0.142672
-0.00947581
0.207267
-0.176166
-0.00400483
0.158599
-0.197508
0.00482154
0.109051
-0.208099
0.0170549
0.0615275
-0.208165
0.0331936
0.018694
-0.196409
0.0538491
-0.0162596
-0.169586
0.0793197
-0.0391669
-0.122137
0.108672
-0.044298
-0.0481825
0.136873
-0.0234617
-0.0575567
-0.011165
0.359294
-0.142861
-0.0200167
0.305192
-0.199005
-0.0193268
0.244388
-0.23454
-0.0137972
0.184516
-0.256251
-0.00523942
0.127214
-0.268097
0.00589237
0.0730666
-0.271903
0.0198778
0.0230036
-0.267792
0.0374262
-0.0212649
-0.254141
0.0595293
-0.0569398
-0.226551
0.0874692
-0.07949
-0.175304
0.122861
-0.0807763
-0.0812257
0.166075
-0.0439345
-0.126564
-0.0227889
0.442336
-0.232723
-0.0361308
0.339699
-0.283663
-0.0343147
0.26224
-0.310606
-0.0270594
0.196257
-0.325673
-0.0173628
0.136039
-0.333921
-0.0061484
0.0793352
-0.337487
0.0065643
0.0256129
-0.337088
0.0212402
-0.0246045
-0.332446
0.0386444
-0.0699405
-0.322075
0.059845
-0.108004
-0.301996
0.086633
-0.134438
-0.261012
0.123124
-0.139206
-0.161984
0.181633
-0.0902436
-0.000135192
0.000592643
0.00137089
-0.000534845
0.000731677
0.00542599
-0.000537751
0.002351
0.00171845
-0.00115231
0.000842833
0.0117038
-0.00213274
0.00289299
0.00680038
-0.0011745
0.0051074
0.00204121
-0.00203841
0.000889743
0.0207716
-0.00459694
0.00330828
0.0146524
-0.00466843
0.00625989
0.00807328
-0.00212801
0.00918534
0.00226151
-0.00323443
0.000832983
0.0331322
-0.00811693
0.00345
0.0259349
-0.0100578
0.00709019
0.0173515
-0.00847324
0.011197
0.00892703
-0.00349371
0.0149387
0.00225786
-0.00477421
0.000636419
0.0492065
-0.0128315
0.0031779
0.0412056
-0.0176962
0.00728163
0.0305698
-0.0182183
0.0125275
0.0190983
-0.0139233
0.0180804
0.00887888
-0.0053756
0.0227255
0.00185849
-0.00670216
0.000265045
0.0693304
-0.0188638
0.00238193
0.0608659
-0.0278093
0.00656979
0.0482026
-0.0318543
0.0126102
0.0333563
-0.0298051
0.0198935
0.0188339
-0.0214188
0.0272208
0.00725698
-0.00788662
0.0328454
0.000834299
-0.00910515
-0.000329302
0.0938861
-0.026419
0.000972792
0.0852439
-0.0406069
0.00480951
0.070486
-0.0495741
0.0110877
0.0519285
-0.0515785
0.0195191
0.0324457
-0.0454979
0.0292958
0.0151974
-0.0313808
0.0387805
0.00322556
-0.0111654
0.0455003
-0.00110618
-0.0121646
-0.00123943
0.123396
-0.0359564
-0.00118735
0.114683
-0.0565559
0.00191771
0.0974384
-0.0715661
0.00788616
0.0746171
-0.0790738
0.0166219
0.0495211
-0.0775237
0.0278204
0.0256656
-0.0658866
0.040524
0.00663699
-0.0443333
0.0526412
-0.00422311
-0.0154432
0.0607427
-0.00435805
-0.0162596
-0.00266069
0.158733
-0.0484505
-0.00440724
0.149633
-0.0767574
-0.00229038
0.128891
-0.0985236
0.00305631
0.100803
-0.112139
0.0114253
0.0693188
-0.116351
0.0227932
0.0381297
-0.109899
0.0369402
0.0109256
-0.0915974
0.0529059
-0.00850468
-0.0611608
0.06828
-0.0164124
-0.021219
0.0784693
-0.00956079
-0.0222466
-0.00501493
0.201104
-0.0659217
-0.00936894
0.190248
-0.103437
-0.0083397
0.163984
-0.13214
-0.00355362
0.129112
-0.151389
0.004281
0.0904118
-0.161019
0.0150468
0.0515075
-0.160525
0.0288835
0.0156829
-0.148713
0.0457923
-0.0135664
-0.123702
0.0650831
-0.0322141
-0.0836534
0.0844364
-0.0354952
-0.0297104
0.0982129
-0.0180136
-0.0324099
-0.00931785
0.251983
-0.0926904
-0.0175592
0.235228
-0.140695
-0.0174183
0.200035
-0.17538
-0.0126152
0.156717
-0.19845
-0.00482154
0.110441
-0.211595
0.00542475
0.0641792
-0.215673
0.0182062
0.0202855
-0.210439
0.0338841
-0.018694
-0.194375
0.0527928
-0.0494986
-0.16433
0.0748349
-0.0675502
-0.115485
0.0985798
-0.065824
-0.0440657
0.118487
-0.0330466
-0.0543441
-0.0187385
0.310132
-0.138587
-0.0325027
0.277645
-0.195685
-0.0319732
0.22986
-0.232487
-0.0256312
0.178104
-0.255524
-0.0165813
0.125709
-0.26891
-0.00589237
0.0739874
-0.274806
0.00629197
0.0239709
-0.273952
0.0202976
-0.0230037
-0.265854
0.0366718
-0.0649996
-0.248523
0.0560308
-0.0990538
-0.217538
0.078978
-0.120064
-0.164016
0.105809
-0.117506
-0.0730049
0.134143
-0.065763
-0.119517
-0.0503343
0.347503
-0.22641
-0.0639499
0.292077
-0.279589
-0.0567999
0.237285
-0.308118
-0.0451461
0.183958
-0.324316
-0.032397
0.131117
-0.333475
-0.0194992
0.0783769
-0.337962
-0.0065643
0.0259352
-0.338725
0.00670413
-0.0256129
-0.335881
0.0208026
-0.0753749
-0.328712
0.0362858
-0.122157
-0.315316
0.0537022
-0.164245
-0.29114
0.0736959
-0.198357
-0.244623
0.097451
-0.214892
-0.143495
0.127533
-0.169633
-0.000100842
0.000441798
0.00102109
-0.000398046
0.000546982
0.00404158
-0.000399528
0.00175173
0.0012794
-0.000856223
0.000633828
0.00872267
-0.00158032
0.00216253
0.00506204
-0.000869224
0.00380221
0.00151931
-0.00151604
0.000675529
0.015501
-0.0034038
0.00249091
0.0109128
-0.00344564
0.0046779
0.00600709
-0.00156869
0.0068287
0.00168331
-0.00241125
0.000640772
0.02478
-0.00601922
0.0026294
0.0193528
-0.0074212
0.00534837
0.0129273
-0.0062289
0.00836665
0.00664763
-0.0025647
0.011089
0.0016826
-0.003569
0.000497057
0.0368842
-0.00954569
0.00246151
0.0308349
-0.0130902
0.00557666
0.0228424
-0.0134006
0.00947347
0.0142573
-0.0101956
0.0135105
0.00662747
-0.00392837
0.0168351
0.00138827
-0.00501659
0.00021033
0.0520725
-0.014078
0.00188052
0.0457181
-0.0206622
0.0051363
0.0362039
-0.0235311
0.009727
0.025047
-0.0218731
0.0151092
0.0141375
-0.015623
0.0203627
0.00544589
-0.00573053
0.0242825
0.000625959
-0.0067974
-0.000265045
0.0705242
-0.0197361
0.000783097
0.0642463
-0.0303041
0.00384936
0.0532835
-0.0368714
0.00877484
0.0393353
-0.0381302
0.0152052
0.0245963
-0.0333523
0.0223945
0.0115146
-0.0227869
0.0290689
0.00243958
-0.00804392
0.0335419
-0.0008343
-0.00899329
-0.00100801
0.0924032
-0.0267491
-0.000972767
0.0866243
-0.0422773
0.00157182
0.0742031
-0.053599
0.00642308
0.0571835
-0.059085
0.0133683
0.0380905
-0.0575067
0.0219691
0.0197554
-0.0482796
0.0312743
0.00509663
-0.0319742
0.0395923
-0.00322556
-0.0109601
0.0445807
-0.00330202
-0.0117618
-0.0021734
0.11782
-0.0355827
-0.00365976
0.113
-0.0571583
-0.00191771
0.0989197
-0.074113
0.00256053
0.0783534
-0.0847395
0.00950809
0.054331
-0.0877111
0.0187094
0.0299921
-0.0819902
0.0296984
0.00858215
-0.0670501
0.041368
-0.00663699
-0.0435798
0.0515938
-0.0126552
-0.0146452
0.0571412
-0.00724633
-0.0154119
-0.00408252
0.146778
-0.0471508
-0.00784884
0.143404
-0.0761091
-0.00711134
0.127126
-0.0993861
-0.00305631
0.10225
-0.115473
0.00368428
0.0726281
-0.123455
0.0128618
0.0416863
-0.122496
0.0243368
0.0127042
-0.111668
0.037712
-0.0109256
-0.0901878
0.0518555
-0.0255943
-0.0583237
0.0642944
-0.0275671
-0.0194715
0.0706542
-0.0135328
-0.0206241
-0.00746005
0.178654
-0.0632761
-0.014759
0.17708
-0.1013
-0.0150834
0.157597
-0.131274
-0.0111123
0.127436
-0.152427
-0.004281
0.0916518
-0.16482
0.00481912
0.0538644
-0.168438
0.01607
0.0170854
-0.162773
0.029492
-0.0156829
-0.146719
0.044874
-0.041013
-0.118702
0.0612637
-0.0546702
-0.0776658
0.0761138
-0.0512151
-0.0263264
0.0838028
-0.0241232
-0.0291753
-0.01431
0.210674
-0.0878144
-0.0272471
0.210898
-0.136627
-0.0281191
0.186871
-0.172764
-0.0231314
0.150828
-0.197508
-0.0151718
0.109051
-0.21265
-0.00542475
0.0650307
-0.219392
0.00579428
0.0211772
-0.21809
0.0185932
-0.0202855
-0.208165
0.0331936
-0.0567837
-0.187961
0.0496305
-0.0848565
-0.154597
0.0673235
-0.0992355
-0.104446
0.0840781
-0.0909856
-0.0373234
0.0933403
-0.0446925
-0.0466408
-0.0331328
0.229952
-0.129447
-0.0535396
0.234206
-0.188984
-0.0513561
0.206422
-0.22814
-0.0421459
0.166397
-0.253076
-0.0307117
0.120994
-0.268097
-0.0186281
0.0730666
-0.275671
-0.00629197
0.0242807
-0.276912
0.00642636
-0.0239709
-0.271903
0.0198778
-0.0701883
-0.259651
0.0344198
-0.11245
-0.237807
0.0502167
-0.147802
-0.201815
0.066939
-0.170519
-0.143993
0.0827995
-0.166793
-0.0570943
0.090294
-0.0982501
-0.0895836
0.169633
-0.208296
-0.127533
0.214892
-0.270116
-0.097451
0.198357
-0.302898
-0.0736959
0.164245
-0.321381
-0.0537022
0.122157
-0.331962
-0.0362858
0.0753749
-0.337487
-0.0208026
0.0256129
-0.33921
-0.00670413
-0.0259352
-0.337487
0.0065643
-0.0783769
-0.331962
0.0194992
-0.131117
-0.321381
0.032397
-0.183958
-0.302898
0.0451461
-0.237285
-0.270116
0.0567999
-0.292077
-0.208296
0.0639499
-0.347503
-0.0895836
0.0503343
-7.55666e-05
0.00032904
0.000759945
-0.000297054
0.000408781
0.00301187
-0.000298061
0.00130596
0.000953213
-0.000638687
0.000476099
0.00650662
-0.00117584
0.00161685
0.00377198
-0.000646136
0.00283359
0.00113194
-0.00113067
0.000511385
0.0115786
-0.00252996
0.00187339
0.00813797
-0.00255451
0.00349756
0.00447555
-0.00116178
0.00508531
0.00125424
-0.00180164
0.000490195
0.0185446
-0.00447842
0.00199656
0.0144545
-0.00549958
0.00402813
0.0096409
-0.0046023
0.00625501
0.00495417
-0.00189276
0.00824834
0.00125434
-0.00267328
0.000385049
0.0276666
-0.00712051
0.00189374
0.0230904
-0.00971858
0.00425154
0.017078
-0.00990329
0.0071499
0.0106467
-0.00750785
0.0101024
0.00494654
-0.00288816
0.0125056
0.00103644
-0.00376401
0.000165008
0.0391232
-0.0105339
0.00146894
0.0343327
-0.0153973
0.00397969
0.027167
-0.0174457
0.00745369
0.0187768
-0.0161287
0.011435
0.0105883
-0.0114657
0.0152296
0.00407564
-0.0041942
0.0180014
0.000468301
-0.00509545
-0.00021033
0.0530201
-0.0147939
0.000621515
0.0483893
-0.0226748
0.00304006
0.0401851
-0.0274856
0.00686401
0.029681
-0.0282648
0.0117382
0.0185527
-0.0245527
0.0170255
0.00867509
-0.0166573
0.0217642
0.00183451
-0.00584961
0.024807
-0.00062596
-0.00670216
-0.000806252
0.0693303
-0.0200173
-0.000783098
0.0653585
-0.0317121
0.00126574
0.0562647
-0.0401968
0.00514349
0.0435126
-0.044163
0.0105877
0.0290308
-0.0426952
0.01713
0.0150493
-0.0354973
0.0239288
0.00387236
-0.0232437
0.0296906
-0.00243958
-0.00788662
0.0328454
-0.00248241
-0.00864229
-0.00174254
0.0878668
-0.0264189
-0.0029773
0.0852439
-0.04281
-0.00157178
0.0754197
-0.0558252
0.00209978
0.0602385
-0.063924
0.00774924
0.0419871
-0.0659272
0.0150594
0.0232163
-0.0610614
0.0234714
0.00662948
-0.0492039
0.0319394
-0.00509663
-0.0313808
0.0387805
-0.0096243
-0.010341
0.0418364
-0.00544123
-0.0110115
-0.00325268
0.108047
-0.0343948
-0.00641486
0.107819
-0.0565559
-0.00590889
0.0974384
-0.0749154
-0.00256053
0.0795701
-0.0878012
0.0030885
0.0571013
-0.094067
0.0107107
0.0329414
-0.0928318
0.0199895
0.0100371
-0.0834652
0.0303297
-0.00858215
-0.0658866
0.040524
-0.0198684
-0.0412893
0.0484628
-0.0210111
-0.0132813
0.051167
-0.0100671
-0.0139685
-0.00582739
0.128468
-0.0446562
-0.0120297
0.132339
-0.0740184
-0.0126506
0.121661
-0.0985236
-0.00948368
0.100803
-0.116509
-0.00368428
0.0737005
-0.127196
0.00414967
0.0437161
-0.130058
0.0137431
0.0139007
-0.124509
0.0248559
-0.0127042
-0.109899
0.0369402
-0.0328304
-0.0858641
0.0487145
-0.0428521
-0.0533737
0.0576602
-0.0388653
-0.0168547
0.0596594
-0.01749
-0.0177832
-0.0106436
0.14541
-0.0585267
-0.0218888
0.156496
-0.0970663
-0.0236931
0.146129
-0.128441
-0.0200604
0.122222
-0.151389
-0.0133758
0.0904118
-0.165985
-0.00481912
0.054625
-0.172485
0.00514919
0.0178787
-0.170842
0.0164143
-0.0170854
-0.160525
0.0288835
-0.0473325
-0.140538
0.0421309
-0.0693022
-0.109776
0.054913
-0.0782903
-0.0683386
0.0643623
-0.0678815
-0.0213167
0.0648107
-0.0304483
-0.0227926
-0.0214368
0.14819
-0.0784849
-0.0414302
0.173895
-0.12892
-0.0433073
0.166022
-0.167414
-0.0371677
0.140181
-0.194382
-0.0277519
0.104713
-0.211595
-0.0170549
0.0641792
-0.220516
-0.00579427
0.0214638
-0.221883
0.00591862
-0.0211772
-0.215673
0.0182062
-0.0615275
-0.201021
0.0311347
-0.0969186
-0.176206
0.0443952
-0.123529
-0.138769
0.0567795
-0.134982
-0.0869881
0.064982
-0.119632
-0.0265613
0.0608151
-0.0574603
-0.0262911
0.0982501
-0.108383
-0.090294
0.166793
-0.174985
-0.0827995
0.170519
-0.219484
-0.066939
0.147802
-0.247929
-0.0502167
0.11245
-0.265364
-0.0344198
0.0701883
-0.274806
-0.0198778
0.0239709
-0.277796
-0.00642636
-0.0242807
-0.274806
0.00629197
-0.0730666
-0.265364
0.0186281
-0.120994
-0.247929
0.0307117
-0.166397
-0.219484
0.0421459
-0.206422
-0.174985
0.0513561
-0.234206
-0.108383
0.0535396
-0.229952
-0.0262911
0.0331328
-0.143495
0.0902436
-0.244623
-0.181633
0.139206
-0.29114
-0.123124
0.134438
-0.315316
-0.086633
0.108004
-0.328712
-0.059845
0.0699405
-0.335881
-0.0386444
0.0246045
-0.338725
-0.0212402
-0.0256129
-0.337962
-0.0065643
-0.0793352
-0.333475
0.00614841
-0.136039
-0.324316
0.0173628
-0.196257
-0.308118
0.0270594
-0.26224
-0.279589
0.0343147
-0.339699
-0.22641
0.0361308
-0.442336
-0.119517
0.0227889
-5.69707e-05
0.000244463
0.000564283
-0.000222764
0.00030509
0.00224279
-0.000223369
0.000972664
0.000709544
-0.000477515
0.000357108
0.00485373
-0.000877983
0.00120826
0.0028117
-0.000482068
0.00211251
0.000843494
-0.000845407
0.000386162
0.00865205
-0.00188653
0.00140731
0.00607274
-0.00190137
0.00261537
0.00333706
-0.000863841
0.00379081
0.000935061
-0.00134861
0.00037335
0.0138829
-0.003341
0.00151155
0.010803
-0.00408973
0.00303011
0.00719557
-0.00341442
0.00467812
0.00369486
-0.00140281
0.00614461
0.000935541
-0.00200498
0.000296236
0.0207532
-0.00532235
0.00144885
0.0172941
-0.00723642
0.00322902
0.0127715
-0.00734634
0.00538684
0.00795211
-0.00555338
0.00755614
0.0036919
-0.00213355
0.00930631
0.000773549
-0.00282784
0.000128294
0.0294015
-0.00789457
0.00113803
0.025783
-0.0114981
0.00306243
0.0203803
-0.0129712
0.00568476
0.0140687
-0.0119385
0.00863509
0.00792388
-0.00845539
0.0113947
0.00304723
-0.00308672
0.0133783
0.000349954
-0.00382794
-0.000165004
0.0398667
-0.0111101
0.00048764
0.0364207
-0.0169938
0.00237527
0.0302561
-0.0205254
0.00532053
0.0223399
-0.0210032
0.0090001
0.01395
-0.0181419
0.0128941
0.00651308
-0.0122427
0.0162874
0.00137494
-0.00428363
0.018395
-0.000468297
-0.00501659
-0.000636419
0.0520724
-0.0150268
-0.000621529
0.0492726
-0.0238311
0.00100489
0.0425435
-0.030171
0.00406376
0.0329596
-0.0330281
0.00828691
0.0219974
-0.0317397
0.0132333
0.0113894
-0.0261846
0.0182037
0.00292298
-0.0170044
0.0222367
-0.00183451
-0.00573053
0.0242825
-0.00185849
-0.0064067
-0.00137677
0.0657006
-0.0197361
-0.00238193
0.0642463
-0.0321661
-0.00126574
0.0572461
-0.0420753
0.00169162
0.0459667
-0.0481675
0.00620885
0.0321349
-0.049476
0.0119348
0.0177748
-0.045459
0.0183127
0.00506311
-0.0362141
0.0244455
-0.00387237
-0.0227869
0.0290689
-0.00725698
-0.0074153
0.0307729
-0.00406539
-0.00800575
-0.00255284
0.0800259
-0.0253832
-0.00514537
0.0810232
-0.0422773
-0.00480951
0.074203
-0.0565356
-0.00209973
0.0612394
-0.0666039
0.00253409
0.0442564
-0.071365
0.0087343
0.0256103
-0.0700378
0.0160985
0.00779512
-0.062244
0.0239771
-0.00662947
-0.0482796
0.0312743
-0.0151974
-0.0295927
0.0363613
-0.0158458
-0.00930193
0.0373206
-0.0074631
-0.00979309
-0.00448625
0.093438
-0.0321841
-0.00959341
0.0987535
-0.0546422
-0.0103493
0.0928836
-0.074113
-0.00788616
0.0783534
-0.0887668
-0.0030885
0.0580044
-0.0975074
0.00348043
0.0346433
-0.0996073
0.0114495
0.0110305
-0.0945253
0.0204205
-0.0100371
-0.0819902
0.0296984
-0.0256656
-0.0623567
0.0380076
-0.0329206
-0.0373863
0.0432937
-0.0291252
-0.0113137
0.0428954
-0.0127057
-0.0116355
-0.00785385
0.102405
-0.0404185
-0.0171395
0.115469
-0.070015
-0.0193516
0.111989
-0.0957459
-0.0168482
0.0963302
-0.115473
-0.0114253
0.0726281
-0.12836
-0.00414967
0.0443747
-0.134046
0.00443551
0.0145845
-0.132224
0.0140398
-0.0139007
-0.122496
0.0243368
-0.0381297
-0.104489
0.0346399
-0.0548052
-0.0783657
0.0435265
-0.0601288
-0.0460195
0.0484312
-0.0499562
-0.0132422
0.0455684
-0.0211414
-0.0129289
-0.0142937
0.0983596
-0.0502626
-0.031065
0.126364
-0.0895117
-0.0349669
0.128361
-0.12285
-0.0314048
0.112909
-0.147996
-0.024102
0.0865626
-0.16482
-0.0150468
0.0538644
-0.173728
-0.00514919
0.0181349
-0.174972
0.00526033
-0.0178787
-0.168438
0.01607
-0.0515075
-0.153573
0.0270714
-0.0797203
-0.12959
0.0376091
-0.0986146
-0.0960597
0.0460917
-0.10273
-0.0548006
0.0492371
-0.0844954
-0.0142877
0.0413532
-0.0360134
-0.0103582
0.0574603
-0.0604403
-0.0608151
0.119632
-0.114398
-0.064982
0.134982
-0.157379
-0.0567795
0.123529
-0.188023
-0.0443952
0.0969186
-0.208099
-0.0311347
0.0615275
-0.219392
-0.0182062
0.0211772
-0.223031
-0.00591862
-0.0214638
-0.219392
0.00579428
-0.0641792
-0.208099
0.0170549
-0.104713
-0.188023
0.0277519
-0.140181
-0.157379
0.0371677
-0.166022
-0.114398
0.0433073
-0.173895
-0.0604403
0.0414302
-0.14819
-0.0103582
0.0214368
-0.0570943
0.065763
-0.143993
-0.134143
0.117506
-0.201815
-0.105809
0.120064
-0.237807
-0.078978
0.0990538
-0.259651
-0.0560308
0.0649996
-0.271903
-0.0366718
0.0230036
-0.276912
-0.0202976
-0.0239709
-0.275671
-0.00629197
-0.0739874
-0.268097
0.00589237
-0.125709
-0.253076
0.0165813
-0.178104
-0.22814
0.0256312