/*--------------------------------*- C++ -*----------------------------------*\
  =========                 |
  \\      /  F ield         | OpenFOAM: The Open Source CFD Toolbox
   \\    /   O peration     | Website:  https://openfoam.org
    \\  /    A nd           | Version:  12
     \\/     M anipulation  |
\*---------------------------------------------------------------------------*/
FoamFile
{
    format      ascii;
    class       volVectorField;
    location    "0";
    object      U;
}
// * * * * * * * * * * * * * * * * * * * * * * * * * * * * * * * * * * * * * //

dimensions      [0 1 -1 0 0 0 0];

internalField   nonuniform List<vector> 
62494
(
(-0.352227 0.210471 0.17283)
(-0.322643 0.198763 0.201797)
(-0.33221 0.124888 0.19236)
(-0.318117 0.18117 0.255492)
(-0.316904 0.187294 0.186246)
(-0.342148 0.123286 0.186114)
(-0.360509 0.105622 0.226744)
(-0.323265 0.0941754 0.200334)
(-0.32543 0.0751988 0.155478)
(-0.3531 0.0873024 0.221956)
(-0.335076 0.0777892 0.207925)
(-0.331342 0.0713031 0.211605)
(-0.344743 0.163209 0.289599)
(-0.328951 0.182699 0.223441)
(-0.322505 0.19755 0.181263)
(-0.359458 0.130788 0.236052)
(-0.354099 0.108349 0.168861)
(-0.342534 0.075036 0.154176)
(-0.348777 0.121653 0.218509)
(-0.339959 0.0921478 0.194832)
(-0.347857 0.0881884 0.192686)
(-0.359462 0.0912122 0.24557)
(-0.30965 0.0712721 0.152803)
(-0.330237 0.0578764 0.212993)
(-0.309269 0.0821335 0.232263)
(-0.310648 0.12347 0.166497)
(-0.31579 0.0550293 0.215312)
(-0.345575 0.0626081 0.225299)
(-0.325863 0.058673 0.218578)
(-0.316003 0.0707839 0.201904)
(-0.309918 0.102143 0.214363)
(-0.313307 0.0848835 0.189506)
(-0.330643 0.064651 0.151894)
(-0.316931 0.0584102 0.117625)
(-0.31709 0.0562005 0.168503)
(-0.328692 0.0694321 0.181273)
(-0.326004 0.0664842 0.180179)
(-0.358524 0.0671149 0.242168)
(-0.338488 0.0687318 0.21336)
(-0.33368 0.0589968 0.215365)
(-0.356741 0.131448 0.305321)
(-0.34563 0.165483 0.260648)
(-0.322136 0.181115 0.211543)
(-0.258463 0.290569 0.0914835)
(-0.310319 0.175482 0.163341)
(-0.360446 0.105044 0.248607)
(-0.320459 0.17905 0.1839)
(-0.372143 0.0947294 0.166699)
(-0.362604 0.0719683 0.157295)
(-0.350781 0.116578 0.189964)
(-0.358104 0.0826597 0.188716)
(-0.348155 0.119636 0.203667)
(-0.35423 0.0873984 0.190833)
(-0.338978 0.0536743 0.179668)
(-0.358316 0.0597743 0.127867)
(-0.342979 0.0615784 0.163068)
(-0.336219 0.0692503 0.169853)
(-0.348852 0.0700083 0.171244)
(-0.356496 0.105343 0.233605)
(-0.343161 0.0780532 0.208718)
(-0.349297 0.0792091 0.205837)
(-0.362955 0.0748058 0.25605)
(-0.296695 0.0549911 0.157731)
(-0.294828 0.0437775 0.172784)
(-0.310422 0.082228 0.132687)
(-0.298876 0.0598329 0.146496)
(-0.294695 0.0614158 0.169385)
(-0.301521 0.0714794 0.162917)
(-0.306276 0.0535628 0.165752)
(-0.307343 0.0554066 0.158215)
(-0.319992 0.0611181 0.173605)
(-0.313822 0.0484016 0.215508)
(-0.330309 0.0412191 0.235473)
(-0.296982 0.130323 0.175076)
(-0.309572 0.108371 0.157216)
(-0.300821 0.114633 0.195151)
(-0.311148 0.0998093 0.174548)
(-0.299488 0.154447 0.122565)
(-0.321775 0.0437667 0.216104)
(-0.346539 0.0424163 0.238804)
(-0.327547 0.0495734 0.217006)
(-0.302809 0.0758667 0.206614)
(-0.301303 0.0911719 0.194571)
(-0.319805 0.0515321 0.147843)
(-0.327451 0.0536029 0.168337)
(-0.296341 0.0458712 0.133224)
(-0.290515 0.0509456 0.129023)
(-0.292689 0.0587073 0.113743)
(-0.301156 0.0483331 0.142967)
(-0.316481 0.0495981 0.138186)
(-0.286613 0.0483585 0.114864)
(-0.28783 0.0525236 0.100775)
(-0.307702 0.0550406 0.10331)
(-0.321513 0.0658074 0.0846386)
(-0.317834 0.0519562 0.172123)
(-0.33064 0.0606656 0.187549)
(-0.324903 0.056024 0.187302)
(-0.358893 0.0461763 0.252218)
(-0.339432 0.0569348 0.219215)
(-0.334198 0.0471755 0.219306)
(-0.399802 0.0838304 0.311625)
(-0.362244 0.138571 0.286968)
(-0.342337 0.178726 0.240558)
(-0.235133 0.25749 0.103584)
(-0.30685 0.132685 0.143962)
(-0.361455 0.0728855 0.252777)
(-0.351064 0.187352 0.211869)
(-0.238825 0.284344 0.160195)
(-0.385307 0.0661147 0.158334)
(-0.397908 0.0737006 0.169293)
(-0.371279 0.0848859 0.19699)
(-0.355348 0.0689423 0.154589)
(-0.357544 0.071662 0.177379)
(-0.349798 0.0600719 0.173519)
(-0.355429 0.071582 0.181685)
(-0.363526 0.109974 0.212695)
(-0.363567 0.0806262 0.20011)
(-0.35746 0.107623 0.223147)
(-0.356029 0.079987 0.203436)
(-0.337682 0.0540764 0.156331)
(-0.33537 0.0588126 0.177412)
(-0.352087 0.0575427 0.118414)
(-0.355778 0.0527987 0.154911)
(-0.411212 0.0586819 0.142557)
(-0.356717 0.0513972 0.151772)
(-0.336902 0.0506786 0.148255)
(-0.343413 0.0597985 0.175004)
(-0.337956 0.0625361 0.184351)
(-0.347097 0.0649119 0.184743)
(-0.360901 0.0848884 0.244567)
(-0.344359 0.0640489 0.218932)
(-0.350637 0.0684207 0.217524)
(-0.435285 0.092895 0.306541)
(-0.360292 0.0467362 0.263133)
(-0.292944 0.0431652 0.168365)
(-0.290036 0.0528698 0.148998)
(-0.298898 0.0465619 0.173169)
(-0.296526 0.0726313 0.12515)
(-0.299542 0.0677677 0.135363)
(-0.30097 0.0882713 0.137782)
(-0.30106 0.0830644 0.1511)
(-0.30806 0.0929809 0.108205)
(-0.291053 0.0593119 0.144446)
(-0.294673 0.0633433 0.170786)
(-0.294854 0.0687902 0.162516)
(-0.310649 0.0452038 0.181366)
(-0.308435 0.0515632 0.168288)
(-0.318079 0.0513248 0.183876)
(-0.310265 0.0130492 0.218909)
(-0.307349 0.0238569 0.205953)
(-0.324033 0.0190045 0.244245)
(-0.289073 0.148959 0.15083)
(-0.297473 0.110748 0.163067)
(-0.301104 0.120531 0.140171)
(-0.299915 0.101417 0.178681)
(-0.289831 0.149465 0.0796622)
(-0.288784 0.150835 0.124153)
(-0.299971 0.125285 0.122959)
(-0.305739 0.217273 0.0642748)
(-0.321741 0.0308441 0.216257)
(-0.344314 0.026752 0.246582)
(-0.327539 0.0375013 0.218396)
(-0.294728 0.0566078 0.207586)
(-0.297 0.0750693 0.194584)
(-0.315533 0.0447149 0.163122)
(-0.326846 0.0482864 0.178614)
(-0.279509 0.0427636 0.12737)
(-0.290403 0.0432655 0.118707)
(-0.291391 0.0417301 0.145056)
(-0.285225 0.0421113 0.141149)
(-0.274403 0.048196 0.125337)
(-0.276436 0.0574944 0.111971)
(-0.290271 0.070488 0.125651)
(-0.289945 0.0664286 0.136155)
(-0.293958 0.0658165 0.0967046)
(-0.297576 0.0407602 0.156451)
(-0.313713 0.0498313 0.126051)
(-0.310952 0.0449554 0.152508)
(-0.277965 0.0460293 0.105442)
(-0.268325 0.0444937 0.109289)
(-0.290996 0.0572232 0.0861292)
(-0.28054 0.048794 0.0930692)
(-0.271091 0.0498637 0.0969901)
(-0.284597 0.0409405 0.130994)
(-0.303431 0.0515734 0.120303)
(-0.278511 0.0436887 0.0994839)
(-0.324273 0.0657881 0.0854071)
(-0.278401 0.0464355 0.0870873)
(-0.315216 0.0584374 0.0755793)
(-0.291587 0.0596772 0.0705429)
(-0.294593 0.0687082 0.0787124)
(-0.30534 0.0947573 0.0815401)
(-0.316978 0.0462336 0.177998)
(-0.33087 0.051792 0.194432)
(-0.323844 0.0470664 0.193304)
(-0.354567 0.0272144 0.258639)
(-0.337326 0.0440305 0.222717)
(-0.333114 0.0341991 0.222071)
(-0.376994 0.0563 0.30881)
(-0.384214 0.102734 0.302406)
(-0.360954 0.154627 0.268628)
(-0.339066 0.131881 0.204476)
(-0.355098 0.0908128 0.157562)
(-0.263952 0.230965 0.161645)
(-0.344554 0.129145 0.179994)
(-0.307885 0.178407 0.200141)
(-0.361537 0.0557424 0.251902)
(-0.255006 0.288403 0.210779)
(-0.361509 0.178594 0.24486)
(-0.412218 0.0602301 0.164787)
(-0.381095 0.0618113 0.181057)
(-0.395271 0.0680748 0.198044)
(-0.349159 0.142639 0.22949)
(-0.349293 0.127253 0.215383)
(-0.371492 0.0763856 0.224641)
(-0.365948 0.056528 0.171514)
(-0.366106 0.0671536 0.187108)
(-0.35243 0.0567722 0.177123)
(-0.355171 0.0654748 0.18865)
(-0.367469 0.0967544 0.233675)
(-0.364738 0.0727584 0.212806)
(-0.362708 0.093012 0.238693)
(-0.35767 0.0716839 0.21597)
(-0.335195 0.0475534 0.171095)
(-0.334194 0.0510281 0.179176)
(-0.340285 0.0637016 0.127515)
(-0.322862 0.0535919 0.140816)
(-0.350087 0.0579647 0.145378)
(-0.333352 0.0522708 0.144344)
(-0.405531 0.0653202 0.133762)
(-0.398126 0.053759 0.181428)
(-0.361255 0.0483022 0.175029)
(-0.359077 0.0496709 0.16827)
(-0.33245 0.0472522 0.162039)
(-0.342882 0.0521821 0.185181)
(-0.338123 0.0546292 0.193808)
(-0.345893 0.057912 0.194574)
(-0.362464 0.0671643 0.250642)
(-0.342511 0.0531643 0.228622)
(-0.350564 0.0577813 0.229003)
(-0.366125 0.0491451 0.319735)
(-0.356896 0.0155747 0.262122)
(-0.290968 0.0260962 0.175312)
(-0.278397 0.0296562 0.165783)
(-0.276742 0.0526354 0.162443)
(-0.300401 0.0397576 0.173494)
(-0.298715 0.0768897 0.114043)
(-0.293804 0.0871513 0.140881)
(-0.296955 0.096596 0.124017)
(-0.294792 0.0787502 0.152656)
(-0.295642 0.0802129 0.101233)
(-0.296158 0.0992388 0.109794)
(-0.281339 0.0561993 0.147288)
(-0.289375 0.0485296 0.167889)
(-0.289678 0.0648211 0.162993)
(-0.308347 0.034886 0.188056)
(-0.307936 0.0419573 0.174298)
(-0.316492 0.041484 0.19062)
(-0.327619 -0.00287524 0.247576)
(-0.295481 -0.00299289 0.206749)
(-0.30694 -0.0144799 0.21304)
(-0.318909 0.0182862 0.216599)
(-0.298505 0.0327611 0.169268)
(-0.286779 0.0112494 0.187039)
(-0.286094 0.0405169 0.192157)
(-0.295053 0.103418 0.167303)
(-0.293196 0.117079 0.149971)
(-0.296966 0.0913921 0.181464)
(-0.245441 0.15509 0.0616327)
(-0.297263 0.120356 0.0962129)
(-0.271933 0.168049 0.0964725)
(-0.29456 0.124184 0.102997)
(-0.229437 0.214279 0.0408047)
(-0.289786 0.132896 0.0435719)
(-0.243274 0.210194 0.0316235)
(-0.256727 0.204616 0.0498382)
(-0.341704 0.181568 0.111533)
(-0.29422 0.148474 0.129139)
(-0.343355 0.00986651 0.249972)
(-0.326156 0.0253119 0.219541)
(-0.288049 0.0621804 0.185378)
(-0.326137 0.0442905 0.187241)
(-0.309862 0.0368428 0.175419)
(-0.314792 0.0420229 0.183658)
(-0.272764 0.0424416 0.117273)
(-0.274406 0.0377454 0.137429)
(-0.264049 0.0389152 0.1202)
(-0.285898 0.0423997 0.134657)
(-0.285467 0.0372258 0.157044)
(-0.281369 0.033735 0.150389)
(-0.270782 0.0371416 0.135694)
(-0.260011 0.0412044 0.121728)
(-0.260093 0.049156 0.145418)
(-0.274701 0.0585839 0.140999)
(-0.276186 0.072704 0.128289)
(-0.282263 0.0699363 0.127397)
(-0.271592 0.062306 0.136189)
(-0.280656 0.0655776 0.136866)
(-0.261909 0.0521326 0.110258)
(-0.277306 0.0654153 0.0962705)
(-0.288876 0.0780681 0.114408)
(-0.288496 0.0807789 0.103052)
(-0.294489 0.0328013 0.17666)
(-0.305494 0.0377165 0.179049)
(-0.292215 0.0334355 0.167391)
(-0.306603 0.0465043 0.142948)
(-0.304574 0.0406791 0.165647)
(-0.262418 0.0432257 0.0997839)
(-0.253144 0.0406601 0.10438)
(-0.285546 0.0518903 0.0798329)
(-0.273265 0.0545208 0.0834908)
(-0.265743 0.0464752 0.0882668)
(-0.255899 0.0464894 0.0934425)
(-0.272848 0.0427659 0.112744)
(-0.28501 0.0528144 0.120783)
(-0.280018 0.047496 0.135018)
(-0.299297 0.050056 0.13802)
(-0.265956 0.0476748 0.0859281)
(-0.259443 0.0438929 0.0939825)
(-0.328529 0.0590503 0.135913)
(-0.422491 0.0827315 0.113001)
(-0.292616 0.0821663 0.0748089)
(-0.258294 0.0548845 0.0818449)
(-0.262215 0.0568094 0.0587662)
(-0.270194 0.0499375 0.0624143)
(-0.273127 0.0599394 0.115882)
(-0.316105 0.0686605 0.128728)
(-0.283498 0.0484944 0.0750037)
(-0.262644 0.0454952 0.0825091)
(-0.28329 0.0505062 0.0625316)
(-0.287275 0.0537119 0.0655123)
(-0.274573 0.0581772 0.0689539)
(-0.28838 0.0847901 0.0715535)
(-0.277424 0.0709098 0.0789224)
(-0.295338 0.0829787 0.0871947)
(-0.285095 0.0821116 0.0843706)
(-0.286353 0.0835291 0.0922951)
(-0.287813 0.103949 0.0779588)
(-0.296428 0.102779 0.0931044)
(-0.304486 0.0912518 0.0556907)
(-0.329786 0.0436463 0.20022)
(-0.322317 0.0385691 0.198094)
(-0.352093 0.00557923 0.258988)
(-0.34078 0.029184 0.224603)
(-0.331624 0.0222144 0.223262)
(-0.383712 0.0134621 0.310142)
(-0.388447 0.0709262 0.311109)
(-0.377723 0.126283 0.289692)
(-0.356636 0.0882697 0.180396)
(-0.352507 0.0957361 0.198257)
(-0.339615 0.0987163 0.178169)
(-0.313602 0.132006 0.194732)
(-0.291786 0.233773 0.237771)
(-0.167355 0.239697 0.0729884)
(-0.303203 0.199164 0.233541)
(-0.354648 0.033014 0.243535)
(-0.310094 0.25 0.281018)
(-0.374355 0.157468 0.275254)
(-0.407413 0.0560848 0.188362)
(-0.374972 0.0569174 0.203085)
(-0.368307 0.0851154 0.207033)
(-0.355738 0.102394 0.214028)
(-0.42618 0.0571673 0.202841)
(-0.393187 0.0640903 0.224223)
(-0.359844 0.131475 0.254834)
(-0.355118 0.119094 0.243379)
(-0.368543 0.119028 0.276569)
(-0.36283 0.110641 0.26514)
(-0.358455 0.0872788 0.244622)
(-0.375247 0.0592233 0.246102)
(-0.361717 0.0666744 0.220451)
(-0.360803 0.053475 0.187338)
(-0.361925 0.0606886 0.199359)
(-0.352193 0.053943 0.182988)
(-0.353703 0.0592571 0.197424)
(-0.364485 0.075909 0.248884)
(-0.358906 0.0617798 0.228517)
(-0.330469 0.0432386 0.179864)
(-0.329469 0.0413851 0.185825)
(-0.340309 0.0523077 0.199061)
(-0.390764 0.0603067 0.169708)
(-0.347036 0.0520304 0.151314)
(-0.320473 0.051972 0.149126)
(-0.355083 0.0541827 0.161041)
(-0.328148 0.0496308 0.155361)
(-0.456548 0.0518519 0.204878)
(-0.380779 0.0460317 0.217624)
(-0.4013 0.0529686 0.210192)
(-0.357215 0.0511029 0.198993)
(-0.351361 0.0427732 0.194098)
(-0.350912 0.0456913 0.185347)
(-0.34864 0.0457963 0.185136)
(-0.325906 0.0436227 0.177091)
(-0.337431 0.0463851 0.201224)
(-0.344693 0.0506655 0.200913)
(-0.386092 0.00827611 0.312334)
(-0.34974 0.00302353 0.255989)
(-0.276084 0.0169937 0.16934)
(-0.285602 0.0117272 0.179582)
(-0.307792 0.0264198 0.191742)
(-0.25884 0.0389353 0.144922)
(-0.27031 0.044197 0.168851)
(-0.267242 0.0226788 0.149094)
(-0.274826 0.0176278 0.169887)
(-0.282433 0.0437194 0.167159)
(-0.288826 0.0848697 0.143643)
(-0.291873 0.0946835 0.127879)
(-0.28903 0.0754675 0.154345)
(-0.29004 0.101715 0.113192)
(-0.283242 0.062403 0.165225)
(-0.314711 0.0325979 0.195046)
(-0.320812 -0.0201504 0.245395)
(-0.280901 -0.00933955 0.189674)
(-0.279826 -0.00112185 0.190697)
(-0.291799 -0.0304725 0.19598)
(-0.294791 -0.0455984 0.202694)
(-0.317286 0.0055119 0.215194)
(-0.328209 -0.0426519 0.239896)
(-0.314027 -0.00409534 0.210716)
(-0.267457 0.0233724 0.177721)
(-0.271213 0.00706898 0.184655)
(-0.289695 0.0936861 0.165188)
(-0.293468 0.116806 0.151687)
(-0.290694 0.0769344 0.178171)
(-0.249499 0.174278 0.0794433)
(-0.276072 0.146717 0.0423682)
(-0.288559 0.134149 0.0698963)
(-0.277706 0.172173 0.100271)
(-0.287534 0.141201 0.0988882)
(-0.242916 0.185572 -0.0290608)
(-0.289677 0.127401 0.135668)
(-0.340414 -0.000128701 0.250068)
(-0.323905 0.0147493 0.219476)
(-0.315236 0.038041 0.191897)
(-0.302888 0.0291905 0.184036)
(-0.311272 0.0347816 0.188328)
(-0.317981 0.0319158 0.196309)
(-0.308628 0.0311256 0.192149)
(-0.268495 0.0395188 0.127932)
(-0.258163 0.0398149 0.110525)
(-0.268611 0.0331422 0.146653)
(-0.259124 0.0337693 0.129781)
(-0.249395 0.0348624 0.113896)
(-0.279899 0.0394808 0.148089)
(-0.278015 0.0345571 0.169802)
(-0.266273 0.0286382 0.143644)
(-0.276123 0.0259948 0.157659)
(-0.256642 0.0300689 0.130007)
(-0.267937 0.0452552 0.155608)
(-0.246728 0.0366989 0.117526)
(-0.268475 0.0632375 0.142803)
(-0.281762 0.086256 0.149419)
(-0.270596 0.0754669 0.119063)
(-0.279773 0.0775967 0.117342)
(-0.284043 0.0698277 0.159289)
(-0.262479 0.0615718 0.0958444)
(-0.248828 0.0483665 0.108012)
(-0.273205 0.0842682 0.108912)
(-0.27997 0.0808985 0.106077)
(-0.295611 0.0284532 0.17945)
(-0.303275 0.0302302 0.182791)
(-0.285327 0.0290656 0.177565)
(-0.288316 0.0217374 0.181188)
(-0.299394 0.0268012 0.186371)
(-0.299463 0.0434479 0.156885)
(-0.296886 0.0357764 0.177189)
(-0.247682 0.0402319 0.0943781)
(-0.239472 0.036943 0.0996713)
(-0.268744 0.0493428 0.0759568)
(-0.257811 0.0517718 0.0810894)
(-0.250874 0.0436627 0.0838671)
(-0.242137 0.0431158 0.0899838)
(-0.264745 0.0419642 0.123604)
(-0.254936 0.0416984 0.104929)
(-0.251479 0.0458933 0.107461)
(-0.272896 0.0491973 0.144879)
(-0.274456 0.0435515 0.141862)
(-0.293371 0.0456941 0.152748)
(-0.232427 0.0426793 0.0743453)
(-0.243563 0.0406357 0.0880164)
(-0.313667 0.0558513 0.165152)
(-0.374844 0.068502 0.161636)
(-0.383702 0.109899 0.101694)
(-0.417687 0.0889517 0.168317)
(-0.423714 0.0781928 0.170456)
(-0.363946 0.0784053 0.155039)
(-0.56549 0.105211 0.147506)
(-0.265301 0.0989945 0.0839111)
(-0.30375 0.0859805 0.0277336)
(-0.28057 0.0885808 0.1056)
(-0.258694 0.0674787 0.106501)
(-0.24009 0.0749748 0.107266)
(-0.299283 0.0794381 0.121574)
(-0.272067 0.105389 0.0594981)
(-0.229023 0.0946308 0.0661053)
(-0.235441 0.0947791 0.0504175)
(-0.240316 0.061645 0.0753738)
(-0.230127 0.0702383 0.0711979)
(-0.233622 0.0726478 0.0508538)
(-0.244343 0.0636221 0.0544851)
(-0.223184 0.0474928 0.069453)
(-0.240857 0.0522143 0.102464)
(-0.228866 0.0493982 0.0508801)
(-0.238046 0.0453256 0.0548647)
(-0.267673 0.0483607 0.0584079)
(-0.265556 0.0471302 0.0706379)
(-0.261292 0.0567237 0.137912)
(-0.301435 0.0650651 0.157358)
(-0.247123 0.0421256 0.0780383)
(-0.270759 0.0516754 0.0629206)
(-0.258984 0.0560787 0.0675011)
(-0.288349 0.0990731 0.0602438)
(-0.257256 0.0928432 0.0879705)
(-0.262123 0.0691093 0.0790223)
(-0.27438 0.0883878 0.0728572)
(-0.26714 0.0853505 0.100006)
(-0.276662 0.0859933 0.0923792)
(-0.283625 0.105537 0.0818884)
(-0.287258 0.103693 0.0974544)
(-0.327855 0.036551 0.204504)
(-0.320054 0.0306683 0.201565)
(-0.389349 -0.00688757 0.283773)
(-0.344755 -0.0168483 0.251984)
(-0.339845 0.0195757 0.226655)
(-0.329066 0.0102106 0.222858)
(-0.386131 -0.00149339 0.299783)
(-0.393215 0.0294298 0.318752)
(-0.38872 0.0948402 0.304392)
(-0.394754 0.060396 0.206526)
(-0.277945 0.0849955 0.168115)
(-0.349296 0.103078 0.208644)
(-0.22065 0.12639 0.154375)
(-0.314152 0.136762 0.228038)
(-0.325786 0.220411 0.288989)
(-0.143802 0.307794 0.0953027)
(-0.298717 0.199211 0.267323)
(-0.397425 0.0111963 0.313834)
(-0.34517 0.00799388 0.243685)
(-0.334001 0.0392296 0.204202)
(-0.364148 0.0528047 0.245016)
(-0.35052 0.215275 0.329759)
(-0.382529 0.130321 0.298797)
(-0.435494 0.0489702 0.196162)
(-0.374248 0.0471118 0.22175)
(-0.352528 0.0562426 0.203919)
(-0.362723 0.0863329 0.229601)
(-0.358514 0.0992408 0.233851)
(-0.421331 0.0537875 0.229069)
(-0.461806 0.0479484 0.2113)
(-0.37097 0.0804753 0.24836)
(-0.36347 0.0960149 0.253483)
(-0.391671 0.0542328 0.246983)
(-0.379608 0.0928894 0.291709)
(-0.35896 0.181755 0.33035)
(-0.371501 0.0919541 0.281638)
(-0.322115 0.189827 0.304527)
(-0.383558 0.0738558 0.299128)
(-0.37758 0.0771192 0.291693)
(-0.372837 0.0408881 0.259389)
(-0.351863 0.0513866 0.205809)
(-0.322289 0.0369393 0.199938)
(-0.450271 0.0688383 0.193609)
(-0.372739 0.0550176 0.205414)
(-0.331709 0.0537925 0.171945)
(-0.313645 0.0508818 0.160449)
(-0.344587 0.0509307 0.179054)
(-0.320785 0.0464984 0.169572)
(-0.558767 0.0650719 0.269611)
(-0.461746 0.0492335 0.208011)
(-0.443162 0.0461608 0.245871)
(-0.462294 0.0441035 0.22997)
(-0.429123 0.0465729 0.219203)
(-0.339521 0.0366245 0.204801)
(-0.366131 0.0405377 0.236197)
(-0.359828 0.0394653 0.251474)
(-0.339854 0.0420335 0.195691)
(-0.388026 0.04108 0.247376)
(-0.395978 0.0454445 0.229893)
(-0.353848 0.044655 0.209379)
(-0.318819 0.0411967 0.193785)
(-0.371908 -0.0151807 0.297408)
(-0.343378 -0.011215 0.24792)
(-0.26332 0.0117738 0.154915)
(-0.26035 0.0180662 0.152605)
(-0.268942 0.0031079 0.169744)
(-0.270102 0.00990838 0.170272)
(-0.270284 0.0028882 0.170207)
(-0.27655 -0.000153071 0.180318)
(-0.303656 0.0179849 0.193803)
(-0.302198 0.0110446 0.194492)
(-0.258165 0.0136566 0.160816)
(-0.26818 0.0140206 0.161984)
(-0.258567 0.0227606 0.155959)
(-0.267074 0.0125018 0.167998)
(-0.287121 0.0932377 0.131506)
(-0.285843 0.100146 0.118038)
(-0.312134 0.0245491 0.197905)
(-0.278698 -0.0255428 0.187444)
(-0.271454 -0.0193788 0.186758)
(-0.272303 -0.00503542 0.187486)
(-0.28359 -0.0413309 0.183397)
(-0.27426 -0.0589642 0.183136)
(-0.272042 -0.0335164 0.180747)
(-0.27473 -0.0562036 0.182719)
(-0.323026 -0.0969638 0.19426)
(-0.282843 -0.0397605 0.186905)
(-0.332838 -0.0931087 0.205169)
(-0.301408 -0.0922382 0.163651)
(-0.315086 -0.0820913 0.171068)
(-0.304502 -0.0463582 0.209291)
(-0.297084 -0.0121851 0.203037)
(-0.320139 -0.0561422 0.222922)
(-0.305453 -0.0123239 0.205785)
(-0.354314 -0.067881 0.262071)
(-0.338612 -0.0256731 0.24692)
(-0.32042 0.00239499 0.217428)
(-0.259156 0.0234952 0.184785)
(-0.265154 0.00516626 0.187897)
(-0.290501 0.103365 0.152699)
(-0.253524 0.196737 -0.0362631)
(-0.249009 0.2022 -0.0377577)
(-0.262309 0.137544 0.0997357)
(-0.274583 0.135967 0.117509)
(-0.286417 0.112423 0.139041)
(-0.305647 0.0272225 0.209433)
(-0.27794 0.0251011 0.191737)
(-0.2998 0.0220092 0.197008)
(-0.308852 0.0267443 0.203025)
(-0.30445 0.0228632 0.195543)
(-0.32537 0.0301945 0.207682)
(-0.317342 0.0235346 0.203836)
(-0.253341 0.0364822 0.12049)
(-0.262832 0.0365837 0.137846)
(-0.243733 0.0366909 0.104056)
(-0.261443 0.0280091 0.154355)
(-0.253492 0.0290993 0.138576)
(-0.244726 0.0297179 0.122169)
(-0.235858 0.0310666 0.107972)
(-0.272755 0.0365856 0.161906)
(-0.260743 0.0209308 0.150139)
(-0.251967 0.0224769 0.135968)
(-0.269462 0.0184045 0.161862)
(-0.24319 0.0263531 0.124244)
(-0.257338 0.0433165 0.152056)
(-0.23506 0.0311901 0.112589)
(-0.265405 0.0802813 0.123218)
(-0.257537 0.0632456 0.14103)
(-0.282068 0.0909246 0.137789)
(-0.249357 0.0593367 0.0953288)
(-0.238107 0.0427912 0.104878)
(-0.280086 0.102212 0.124873)
(-0.272343 0.00996364 0.175551)
(-0.288241 0.0210595 0.17924)
(-0.287845 0.0194705 0.198116)
(-0.295593 0.0225089 0.190342)
(-0.309196 0.0174828 0.199685)
(-0.291752 0.0401303 0.167897)
(-0.233941 0.0373352 0.0892786)
(-0.226986 0.0329459 0.094994)
(-0.253413 0.0468541 0.0725501)
(-0.243905 0.048958 0.0787974)
(-0.236938 0.0409559 0.0797763)
(-0.22959 0.0392175 0.0865843)
(-0.258276 0.0388814 0.134018)
(-0.249069 0.0399031 0.114569)
(-0.239521 0.0376196 0.0975032)
(-0.240019 0.0423845 0.125396)
(-0.223612 0.0397144 0.0922208)
(-0.26696 0.0383524 0.148383)
(-0.286116 0.0466301 0.169347)
(-0.257098 0.0448785 0.167869)
(-0.229359 0.0388435 0.0829638)
(-0.206034 0.0370412 0.0649711)
(-0.23271 0.0406557 0.0734754)
(-0.32523 0.0515452 0.186147)
(-0.307105 0.0445666 0.169457)
(-0.361293 0.0642993 0.192375)
(-0.295258 0.0515638 0.190696)
(-0.339853 0.125963 0.114533)
(-0.520788 0.145354 0.13132)
(-0.394414 0.115097 0.0435698)
(-0.369263 0.11571 0.141219)
(-0.388253 0.104355 0.152833)
(-0.323794 0.101003 0.14455)
(-0.342083 0.0897051 0.145411)
(-0.355275 0.133792 0.0809113)
(-0.30149 0.12767 0.0863074)
(-0.310923 0.127518 0.0670272)
(-0.412673 0.0847734 0.206743)
(-0.525574 0.0961797 0.247103)
(-0.422746 0.072722 0.214424)
(-0.34951 0.0743977 0.18395)
(-0.580202 0.111277 0.035922)
(-0.772538 0.13318 0.197816)
(-0.226428 0.0953139 0.100703)
(-0.240383 0.114177 0.0751649)
(-0.276974 0.10823 0.0339218)
(-0.24078 0.0752335 0.0111256)
(-0.309102 0.0876431 -0.0222895)
(-0.279846 0.103762 0.00559895)
(-0.23968 0.0993878 0.0159181)
(-0.239202 0.0975076 0.032587)
(-0.239196 0.074447 0.0311975)
(-0.249979 0.0651129 0.0336411)
(-0.25172 0.0658782 0.0121754)
(-0.267065 0.0844394 0.136192)
(-0.247303 0.0647371 0.128649)
(-0.227387 0.0589455 0.0945946)
(-0.230509 0.0771093 0.122028)
(-0.213949 0.0667022 0.0894514)
(-0.285311 0.074975 0.147595)
(-0.247743 0.118208 0.0542894)
(-0.203052 0.0792095 0.0620261)
(-0.20649 0.100576 0.0685876)
(-0.207144 0.0821498 0.0450509)
(-0.212949 0.103042 0.0478135)
(-0.209985 0.0531209 0.064609)
(-0.197053 0.0596435 0.0602313)
(-0.201698 0.0616316 0.04401)
(-0.215253 0.0548931 0.0474731)
(-0.196735 0.0408378 0.0602259)
(-0.21391 0.045111 0.0865254)
(-0.229391 0.049152 0.118928)
(-0.200818 0.0426115 0.0447541)
(-0.237176 0.0447166 0.0529983)
(-0.210411 0.0397653 0.0486342)
(-0.235083 0.0432468 0.0634289)
(-0.25206 0.0460268 0.0564699)
(-0.249781 0.0448018 0.0675458)
(-0.245926 0.0529097 0.160278)
(-0.283609 0.0608848 0.182792)
(-0.255256 0.0494984 0.0605093)
(-0.244896 0.0539104 0.0662156)
(-0.259096 0.0909216 0.101124)
(-0.276802 0.112852 0.100902)
(-0.248932 0.0689492 0.079614)
(-0.279581 0.106955 0.0910973)
(-0.279502 0.103483 0.112833)
(-0.28214 0.105515 0.104049)
(-0.36968 -0.0296128 0.283226)
(-0.336743 -0.0208508 0.241279)
(-0.334819 0.0104744 0.226818)
(-0.324795 0.0033688 0.221811)
(-0.381961 -0.0331193 0.288294)
(-0.397657 0.0663608 0.316231)
(-0.392464 0.0594518 0.240749)
(-0.444376 0.0420885 0.214951)
(-0.336159 0.0291999 0.20003)
(-0.269521 0.0979078 0.199277)
(-0.349805 0.103399 0.238367)
(-0.197831 0.181028 0.180059)
(-0.326207 0.137512 0.252056)
(-0.395882 -0.0167839 0.300064)
(-0.398947 0.044433 0.320781)
(-0.375397 -0.0495221 0.279934)
(-0.389199 -0.0395127 0.283967)
(-0.334328 -0.0238892 0.23461)
(-0.360091 0.0265775 0.252664)
(-0.326 0.0286516 0.215724)
(-0.337626 -0.0024069 0.240965)
(-0.327616 0.000447863 0.222731)
(-0.394767 0.0878702 0.313687)
(-0.393163 0.060491 0.318577)
(-0.38681 0.156369 0.363952)
(-0.456977 0.045465 0.238585)
(-0.415645 0.0479732 0.252585)
(-0.520049 0.0440372 0.241278)
(-0.369416 0.074329 0.264222)
(-0.353094 0.10348 0.263693)
(-0.369608 0.084507 0.270736)
(-0.336819 0.148115 0.281034)
(-0.378775 0.0644616 0.276934)
(-0.37492 0.0753457 0.283518)
(-0.388425 0.0421394 0.26442)
(-0.384128 0.139918 0.353189)
(-0.349458 0.157825 0.336883)
(-0.39072 0.046178 0.296637)
(-0.402155 0.0987824 0.36513)
(-0.383295 0.0540824 0.297537)
(-0.375005 0.12253 0.354688)
(-0.386278 0.0318719 0.283029)
(-0.382414 0.0463349 0.305735)
(-0.366152 0.0250097 0.268248)
(-0.315284 0.0331291 0.215294)
(-0.438282 0.061844 0.233137)
(-0.353408 0.0491334 0.240232)
(-0.332338 0.047684 0.190516)
(-0.312725 0.0430334 0.18579)
(-0.492079 0.0548418 0.363654)
(-0.735578 0.0761531 0.360522)
(-0.499354 0.0406503 0.290251)
(-0.589149 0.0365155 0.330515)
(-0.598952 0.043358 0.275357)
(-0.447615 0.0342163 0.2762)
(-0.409706 0.0404287 0.281973)
(-0.447272 0.0406879 0.252286)
(-0.413545 0.0400653 0.25954)
(-0.421467 0.0436794 0.240543)
(-0.34684 0.033714 0.224035)
(-0.358053 0.0324497 0.247233)
(-0.335289 0.0341592 0.286339)
(-0.379345 0.0340159 0.264005)
(-0.346455 0.0243999 0.25368)
(-0.368101 0.0346043 0.282169)
(-0.365209 -0.0504052 0.279862)
(-0.254517 0.00800697 0.156212)
(-0.254405 0.0108982 0.153808)
(-0.25606 0.0147059 0.154359)
(-0.265328 -0.0042765 0.168714)
(-0.261338 -0.00250061 0.165896)
(-0.263893 0.00505462 0.166938)
(-0.256237 0.00270307 0.156984)
(-0.262041 -0.0093286 0.166378)
(-0.260642 -0.00589026 0.170106)
(-0.270424 -0.00335474 0.18038)
(-0.288962 0.00178812 0.19777)
(-0.296915 0.00560198 0.194364)
(-0.252894 0.0303181 0.143019)
(-0.26165 0.0233034 0.164878)
(-0.252392 0.0164136 0.146362)
(-0.259963 0.00469714 0.163143)
(-0.268958 -0.0358257 0.182121)
(-0.26221 -0.0255129 0.17911)
(-0.264061 -0.0108328 0.184625)
(-0.275743 -0.051816 0.194037)
(-0.268304 -0.0584297 0.185904)
(-0.273484 -0.0672576 0.177527)
(-0.263575 -0.0437455 0.173908)
(-0.264034 -0.0360451 0.172969)
(-0.275239 -0.108545 0.142114)
(-0.261122 -0.0826036 0.167884)
(-0.265857 -0.0469436 0.169689)
(-0.28881 -0.102862 0.174076)
(-0.309829 -0.105195 0.196299)
(-0.256266 -0.0442671 0.162899)
(-0.335831 -0.090441 0.215543)
(-0.310922 -0.101107 0.179554)
(-0.26958 -0.0314581 0.180991)
(-0.29972 -0.0919047 0.166319)
(-0.293886 -0.0900099 0.154892)
(-0.287142 -0.0883123 0.157828)
(-0.301428 -0.0298092 0.205304)
(-0.346169 -0.0830652 0.239719)
(-0.320003 -0.0387949 0.221738)
(-0.308632 -0.0106095 0.212578)
(-0.329121 -0.0325639 0.233496)
(-0.315067 -0.00350094 0.214466)
(-0.36476 -0.0428662 0.25544)
(-0.265126 0.0063106 0.183446)
(-0.263628 0.134303 0.128171)
(-0.277753 0.119146 0.132977)
(-0.304163 0.0107843 0.206755)
(-0.312925 0.0177376 0.203976)
(-0.286429 0.00564709 0.196985)
(-0.246324 0.0164 0.163399)
(-0.257497 0.0219155 0.212883)
(-0.267149 0.0367124 0.179213)
(-0.275757 0.00428779 0.198771)
(-0.293234 0.00949939 0.212884)
(-0.311462 0.0143638 0.205086)
(-0.321478 0.0244401 0.209238)
(-0.3141 0.0174725 0.205047)
(-0.247774 0.0330779 0.130007)
(-0.239058 0.0333557 0.112911)
(-0.256045 0.0331905 0.145508)
(-0.230204 0.0336741 0.0979667)
(-0.24697 0.0264768 0.147489)
(-0.239263 0.0251924 0.129389)
(-0.231295 0.0258421 0.115202)
(-0.223439 0.0271159 0.102024)
(-0.246295 0.0155558 0.140381)
(-0.254335 0.0162808 0.156179)
(-0.238455 0.0176316 0.12901)
(-0.248274 0.0125259 0.158136)
(-0.246477 0.0158009 0.151555)
(-0.231225 0.0210765 0.117906)
(-0.255929 0.0228025 0.159615)
(-0.249633 0.0307314 0.142434)
(-0.224542 0.0244498 0.107755)
(-0.254638 0.0817923 0.125035)
(-0.254395 0.0484299 0.136274)
(-0.239439 0.0556474 0.094237)
(-0.227749 0.0332664 0.102882)
(-0.301469 0.00585773 0.203304)
(-0.305362 0.0120365 0.201114)
(-0.221286 0.0340985 0.0844377)
(-0.215572 0.0286807 0.0906239)
(-0.239242 0.0443848 0.0694462)
(-0.231255 0.0455122 0.0766662)
(-0.224094 0.0378218 0.0759369)
(-0.218128 0.035039 0.0836425)
(-0.250979 0.0395575 0.146476)
(-0.243211 0.0371971 0.122433)
(-0.234456 0.0361953 0.106613)
(-0.22566 0.0360278 0.0917478)
(-0.236448 0.0325545 0.12747)
(-0.225737 0.03844 0.141335)
(-0.21304 0.0363468 0.108309)
(-0.199253 0.0340313 0.0795634)
(-0.220971 0.0341351 0.0996614)
(-0.238144 0.0411226 0.192059)
(-0.216529 0.0351684 0.0775505)
(-0.184675 0.0314951 0.0579982)
(-0.204815 0.033267 0.0736042)
(-0.219628 0.0367916 0.0693967)
(-0.207637 0.0351371 0.0658632)
(-0.306304 0.0429468 0.202139)
(-0.340207 0.0589874 0.224814)
(-0.273615 0.0466946 0.209775)
(-0.437043 0.186394 0.112854)
(-0.299322 0.128064 0.135655)
(-0.33839 0.150962 0.0945087)
(-0.48273 0.134357 0.221839)
(-0.534909 0.149816 0.028704)
(-0.729178 0.191969 0.180725)
(-0.421872 0.117717 -0.0225451)
(-0.365174 0.138961 0.0415173)
(-0.35207 0.13175 0.00247532)
(-0.316606 0.13154 0.0437204)
(-0.316218 0.134766 0.0254242)
(-0.369233 0.108494 0.180955)
(-0.388444 0.0988832 0.192261)
(-0.311231 0.104012 0.16368)
(-0.329921 0.0861327 0.172611)
(-0.34407 0.155494 0.0708989)
(-0.284155 0.134544 0.0950209)
(-0.290729 0.137408 0.0646042)
(-0.378518 0.0792596 0.241499)
(-0.464243 0.0841759 0.335974)
(-0.686695 0.121474 0.330026)
(-0.388139 0.0666464 0.253207)
(-0.32908 0.0696455 0.215389)
(-0.67095 0.144897 -0.122824)
(-0.77341 0.140163 0.0529722)
(-1.20553 0.24489 0.206704)
(-0.197848 0.0829889 0.133959)
(-0.186947 0.0683969 0.0917782)
(-0.173208 0.112637 0.0758398)
(-0.193364 0.0737838 0.0773514)
(-0.179818 0.0816217 0.0650064)
(-0.17538 0.077032 0.080076)
(-0.210609 0.125476 0.0589924)
(-0.252254 0.120712 0.0323394)
(-0.212921 0.0846279 0.0100505)
(-0.241944 0.0753835 -0.00867516)
(-0.207341 0.0637315 0.00882296)
(-0.298862 0.084515 -0.0746657)
(-0.254417 0.107598 -0.0208356)
(-0.241226 0.0748368 -0.0289148)
(-0.25303 0.0659907 -0.00918995)
(-0.252052 0.0654392 -0.0312309)