/*--------------------------------*- C++ -*----------------------------------*\
  =========                 |
  \\      /  F ield         | OpenFOAM: The Open Source CFD Toolbox
   \\    /   O peration     | Website:  https://openfoam.org
    \\  /    A nd           | Version:  12
     \\/     M anipulation  |
\*---------------------------------------------------------------------------*/
FoamFile
{
    format      ascii;
    class       volVectorField;
    location    "0";
    object      U;
}
// * * * * * * * * * * * * * * * * * * * * * * * * * * * * * * * * * * * * * //

dimensions      [0 1 -1 0 0 0 0];

internalField   nonuniform List<vector> 
76064
(
(-24.4295 13.8419 23.3165)
(-5.72946 6.00417 10.0553)
(-25.9095 4.76941 40.9261)
(-27.0952 28.4815 11.167)
(-1.81213 3.27059 5.31122)
(-8.21564 3.38327 22.275)
(-9.9182 15.2952 7.0477)
(-26.258 2.2996 49.5136)
(-30.2992 12.4894 24.1661)
(-28.0093 37.1196 6.18015)
(-0.767218 2.02806 3.21076)
(-3.43313 2.33181 13.4554)
(-4.13638 9.09295 4.39001)
(-8.94504 1.95043 29.4308)
(-15.6582 9.38146 17.0481)
(-11.6191 21.8786 4.71373)
(-26.3701 1.29237 54.325)
(-31.1949 6.52771 31.5579)
(-32.0954 18.2031 15.2156)
(-28.3695 42.5772 3.74392)
(-0.403092 1.35009 2.10436)
(-1.76625 1.62652 8.72003)
(-2.01979 5.83202 2.85588)
(-4.12964 1.54128 18.9744)
(-8.34744 6.66959 11.5095)
(-5.45521 13.7453 3.34083)
(-9.21599 1.17326 33.7541)
(-17.5954 5.61205 23.3904)
(-19.2151 14.1499 12.2163)
(-12.3858 26.4489 3.14467)
(-26.4151 0.761253 57.1832)
(-31.5071 3.76042 35.947)
(-33.356 10.0609 21.0741)
(-32.9057 22.3016 9.9091)
(-28.5301 46.1143 2.33433)
(-0.242249 0.936184 1.44622)
(-1.03726 1.1533 5.91982)
(-1.13041 3.93629 1.93654)
(-2.32187 1.1808 12.8493)
(-4.78272 4.72343 7.85728)
(-2.89948 9.08596 2.34495)
(-4.44843 0.997601 22.5949)
(-10.2812 4.47991 16.5268)
(-11.4208 10.3276 9.0512)
(-6.19507 17.2569 2.42844)
(-9.33389 0.711672 36.4113)
(-18.3595 3.42554 27.3695)
(-22.0082 8.75021 17.3912)
(-21.0155 17.7334 8.52019)
(-12.7623 29.5635 2.06063)
(-26.4355 0.431513 58.8712)
(-31.6366 2.2338 38.617)
(-33.8243 5.9429 24.7932)
(-34.3955 12.8375 14.3003)
(-33.3024 25.1577 6.42155)
(-28.6074 48.3456 1.38384)
(-0.157578 0.665519 1.02269)
(-0.660839 0.829402 4.14401)
(-0.697822 2.7467 1.35349)
(-1.45461 0.892351 8.97782)
(-2.9396 3.37497 5.47497)
(-1.70877 6.23284 1.66)
(-2.62228 0.813673 15.755)
(-6.36596 3.45387 11.6782)
(-7.01073 7.4387 6.54764)
(-3.48056 11.6905 1.81063)
(-4.60401 0.629664 24.9252)
(-11.1945 2.92277 19.8922)
(-14.3087 7.06386 13.274)
(-13.2741 13.2136 6.73882)
(-6.61462 19.7848 1.67889)
(-9.38958 0.409121 38.0075)
(-18.7004 2.09048 29.8594)
(-23.1687 5.4351 20.8005)
(-24.3743 11.2674 12.4865)
(-21.9703 20.3044 5.7322)
(-12.9554 31.5828 1.25338)
(-26.4446 0.196258 59.7666)
(-31.6961 1.27044 40.2106)
(-34.0258 3.57012 27.132)
(-34.9769 7.7514 17.2539)
(-34.9323 14.8997 9.52027)
(-33.5048 27.0357 3.88364)
(-28.6435 49.5845 0.648152)
(-0.107472 0.480718 0.736274)
(-0.443258 0.603033 2.96078)
(-0.459418 1.95882 0.965702)
(-0.968156 0.670486 6.40454)
(-1.91084 2.43716 3.88618)
(-1.086 4.38811 1.1889)
(-1.71044 0.646368 11.2516)
(-4.14635 2.62028 8.33779)
(-4.48841 5.37047 4.7241)
(-2.1351 8.14217 1.33306)
(-2.78521 0.534384 17.7127)
(-7.23588 2.39033 14.4015)
(-9.43873 5.49216 9.84421)
(-8.5433 9.66398 5.11758)
(-3.85144 13.6503 1.30679)
(-4.6823 0.369945 26.3619)
(-11.6469 1.85205 22.0848)
(-15.7188 4.65924 16.1981)
(-16.8403 9.18833 10.0655)
(-14.378 15.3589 4.73245)
(-6.85023 21.4807 1.0541)
(-9.41511 0.187316 38.8614)
(-18.8631 1.205 31.3681)
(-23.7015 3.34601 22.9914)
(-25.8293 7.115 15.2211)
(-25.6885 13.1648 8.5749)
(-22.4834 22.0251 3.53843)
(-13.0489 32.7204 0.594365)
(-26.4473 1.43496e-09 60.0474)
(-31.723 0.578604 41.0599)
(-34.12 2.04094 28.5511)
(-35.235 4.70956 19.1733)
(-35.5909 9.15328 11.6986)
(-35.2171 16.314 5.85373)
(-33.6024 28.1025 1.83636)
(-28.6541 49.9824 -8.95234e-10)
(-0.0754972 0.350949 0.536328)
(-0.307485 0.442037 2.14484)
(-0.315203 1.41738 0.698738)
(-0.668578 0.502676 4.63407)
(-1.29417 1.77616 2.79826)
(-0.726604 3.14524 0.860353)
(-1.1749 0.504821 8.1574)
(-2.80698 1.97356 6.01847)
(-2.98715 3.90272 3.4238)
(-1.39279 5.78557 0.978656)
(-1.86204 0.439822 12.8468)
(-4.89237 1.90254 10.4821)
(-6.37329 4.19106 7.23854)
(-5.65442 7.05014 3.81666)
(-2.43181 9.62551 0.99234)
(-2.87272 0.32162 18.9549)
(-7.7118 1.57373 16.2507)
(-10.8004 3.82607 12.2404)
(-11.6112 7.2043 7.77848)
(-9.55031 11.3704 3.72594)
(-4.07722 15.0061 0.843804)
(-4.71944 0.171256 27.1416)
(-11.8762 1.09026 23.4453)
(-16.4313 2.97046 18.1396)
(-18.6341 6.1283 12.4434)
(-18.4003 10.8221 7.1676)
(-15.0177 16.8296 2.99957)
(-6.97059 22.4553 0.508252)
(-9.42256 1.64852e-09 39.1302)
(-18.9381 0.552353 32.1787)
(-23.9597 1.93705 24.3376)
(-26.5154 4.42072 17.0273)
(-27.3493 8.42664 10.6075)
(-26.4189 14.4792 5.36389)
(-22.7386 23.0124 1.69039)
(-13.077 33.088 -1.1091e-09)
(-26.4446 -0.196258 59.7666)
(-31.7307 4.22459e-09 41.3268)
(-34.1629 0.931633 29.3135)
(-35.3579 2.70767 20.3589)
(-35.8908 5.61577 13.1538)
(-35.9251 10.1452 7.28126)
(-35.358 17.1381 2.79261)
(-33.6316 28.4485 -2.66183e-09)
(-28.6435 49.5845 -0.648152)
(-0.0540665 0.258091 0.3938)
(-0.218182 0.325969 1.56864)
(-0.222135 1.03582 0.51048)
(-0.472955 0.376626 3.38625)
(-0.902352 1.30378 2.03633)
(-0.503082 2.2826 0.62775)
(-0.830908 0.389879 5.97313)
(-1.95455 1.48188 4.38432)
(-2.05091 2.85523 2.49649)
(-0.9471 4.17033 0.719234)
(-1.30652 0.35395 9.42934)
(-3.41261 1.48794 7.67878)
(-4.4041 3.16907 5.3197)
(-3.84684 5.15856 2.82682)
(-1.61947 6.89518 0.744041)
(-1.94846 0.270928 13.8873)
(-5.33674 1.29656 11.9938)
(-7.55292 3.05495 9.1442)
(-8.07846 5.53227 5.88487)
(-6.47923 8.36923 2.8546)
(-2.62417 10.6766 0.654803)
(-2.91583 0.150825 19.6405)
(-7.96865 0.948431 17.4294)
(-11.555 2.52918 13.8884)
(-13.3662 5.05466 9.75322)
(-13.072 8.54615 5.71336)
(-10.1753 12.567 2.41954)
(-4.19845 15.8002 0.41328)
(-4.73044 2.09822e-09 27.3886)
(-11.9854 0.505166 24.1861)
(-16.7964 1.75434 19.3574)
(-19.5583 3.9334 14.055)
(-20.471 7.28756 8.95534)
(-19.3272 11.9704 4.58616)
(-15.3504 17.6858 1.45356)
(-7.00761 22.7732 -1.50146e-09)
(-9.41511 -0.187316 38.8614)
(-18.96 4.86408e-09 32.4342)
(-24.0796 0.889675 25.0659)
(-26.8532 2.5717 18.1545)
(-28.1497 5.2785 11.9821)
(-28.2134 9.3597 6.7031)
(-26.7901 15.2497 2.58136)
(-22.8161 23.3341 -3.12787e-09)
(-13.0489 32.7204 -0.594365)
(-26.4355 -0.431513 58.8712)
(-31.723 -0.578604 41.0599)
(-34.1753 6.79484e-09 29.5539)
(-35.4144 1.23924 21.0018)
(-36.0358 3.24555 14.0673)
(-36.2533 6.27007 8.25447)
(-36.0933 10.7349 3.49776)
(-35.4007 17.4086 -4.11911e-09)
(-33.6024 28.1025 -1.83636)
(-28.6074 48.3456 -1.38384)
(-0.0392265 0.190767 0.29074)
(-0.157245 0.241432 1.15492)
(-0.159372 0.762214 0.375485)
(-0.340126 0.282187 2.49173)
(-0.642128 0.96226 1.49334)
(-0.356426 1.67108 0.460949)
(-0.598338 0.298829 4.40348)
(-1.38884 1.11138 3.21671)
(-1.44152 2.10089 1.83071)
(-0.662305 3.03703 0.52987)
(-0.940315 0.280164 6.97182)
(-2.43153 1.15025 5.65659)
(-3.10352 2.38576 3.91833)
(-2.67869 3.79077 2.09018)
(-1.11663 4.9961 0.554503)
(-1.38552 0.222623 10.2797)
(-3.79939 1.04424 8.88723)
(-5.36868 2.39478 6.80625)
(-5.69255 4.20194 4.40771)
(-4.48762 6.1618 2.15459)
(-1.77331 7.69521 0.498697)
(-1.99263 0.128727 14.4714)
(-5.59086 0.799395 12.9828)
(-8.26138 2.08733 10.4988)
(-9.61501 4.05046 7.47295)
(-9.30272 6.59984 4.42512)
(-7.02004 9.31167 1.8898)
(-2.73174 11.3019 0.324812)
(-2.92882 2.79646e-09 19.8594)
(-8.0955 0.445067 18.0815)
(-11.9654 1.52776 14.9469)
(-14.3522 3.35679 11.131)
(-15.1201 6.0347 7.21544)
(-13.9946 9.5032 3.73345)
(-10.5148 13.2741 1.18879)
(-4.23664 16.0616 -2.33028e-09)
(-4.71944 -0.171256 27.1416)
(-12.0177 6.20192e-09 24.4211)
(-16.9712 0.814139 20.0242)
(-20.0376 2.3318 15.0782)
(-21.5558 4.70626 10.1893)
(-21.582 8.11905 5.7739)
(-19.8173 12.6498 2.23445)
(-15.4536 17.9668 -4.41594e-09)
(-6.97059 22.4553 -0.508252)
(-9.38958 -0.409121 38.0075)
(-18.9381 -0.552353 32.1787)
(-24.1147 7.83477e-09 25.2962)
(-27.0113 1.18391 18.7693)
(-28.5491 3.08465 12.8522)
(-29.0918 5.89959 7.62505)
(-28.6593 9.91631 3.24498)
(-26.904 15.5034 -5.04487e-09)
(-22.7386 23.0124 -1.69039)
(-12.9554 31.5828 -1.25338)
(-26.4151 -0.761253 57.1832)
(-31.6961 -1.27044 40.2106)
(-34.1629 -0.931633 29.3135)
(-35.4308 9.02671e-09 21.2052)
(-36.103 1.48915 14.5668)
(-36.4138 3.63854 8.87296)
(-36.4378 6.6644 3.98443)
(-36.1448 10.9304 -5.57556e-09)
(-35.358 17.1381 -2.79261)
(-33.5048 27.0357 -3.88364)
(-28.5301 46.1143 -2.33433)
(-0.0287202 0.141505 0.215471)
(-0.114571 0.17938 0.854314)
(-0.115755 0.563602 0.277519)
(-0.247447 0.211475 1.84266)
(-0.463571 0.713085 1.10132)
(-0.256532 1.23102 0.34011)
(-0.436043 0.227832 3.26173)
(-1.00135 0.833231 2.37283)
(-1.03077 1.5529 1.34892)
(-0.472114 2.22817 0.391436)
(-0.686714 0.219039 5.17893)
(-1.758 0.882206 4.18526)
(-2.22103 1.79235 2.89463)
(-1.89965 2.79721 1.54648)
(-0.787954 3.65051 0.41225)
(-1.00888 0.179403 7.65375)
(-2.75361 0.827038 6.60723)
(-3.86704 1.85435 5.06354)
(-4.06211 3.17307 3.28712)
(-3.16363 4.54697 1.61364)
(-1.23545 5.59872 0.3757)
(-1.42725 0.107075 10.7648)
(-4.03201 0.657181 9.69677)
(-5.98791 1.68342 7.89393)
(-6.9591 3.18386 5.65723)
(-6.66178 5.03376 3.37021)
(-4.92535 6.88869 1.4468)
(-1.86204 8.17689 0.249739)
(-2.00618 3.68087e-09 14.6595)
(-5.72095 0.379997 13.539)
(-8.66862 1.28896 11.3898)
(-10.5463 2.77599 8.61271)
(-11.1126 4.85207 5.6455)
(-10.1148 7.37093 2.94116)
(-7.32462 9.8755 0.939207)
(-2.7663 11.5093 -3.79239e-09)
(-2.91583 -0.150825 19.6405)
(-8.13377 8.2889e-09 18.2899)
(-12.169 0.717759 15.535)
(-14.893 2.03322 12.0238)
(-16.2848 4.02507 8.27736)
(-16.2427 6.74385 4.74028)
(-14.5016 10.0751 1.84114)
(-10.6223 13.5077 -6.78955e-09)
(-4.19845 15.8002 -0.41328)
(-4.6823 -0.369945 26.3619)
(-11.9854 -0.505166 24.1861)
(-17.0232 1.00162e-08 20.2362)
(-20.2686 1.08415 15.6422)
(-22.1245 2.79997 10.9818)
(-22.7781 5.26842 6.60534)
(-22.1768 8.61782 2.82595)
(-19.9706 12.8745 -7.04074e-09)
(-15.3504 17.6858 -1.45356)
(-6.85023 21.4807 -1.0541)
(-9.33389 -0.711672 36.4113)
(-18.8631 -1.205 31.3681)
(-24.0796 -0.889674 25.0659)
(-27.0578 1.04226e-08 18.9644)
(-28.7375 1.42324 13.3305)
(-29.5347 3.46002 8.2151)
(-29.5829 6.27462 3.70681)
(-28.7972 10.1012 -6.71223e-09)
(-26.7901 15.2497 -2.58136)
(-22.4834 22.0251 -3.53843)
(-12.7623 29.5635 -2.06063)
(-26.3701 -1.29237 54.325)
(-31.6366 -2.2338 38.617)
(-34.12 -2.04094 28.5511)
(-35.4144 -1.23924 21.0018)
(-36.1227 1.08325e-08 14.7255)
(-36.4888 1.67285 9.21351)
(-36.6075 3.87737 4.29611)
(-36.4945 6.79603 -6.6581e-09)
(-36.0933 10.7349 -3.49776)
(-35.2171 16.314 -5.85373)
(-33.3024 25.1577 -6.42155)
(-28.3695 42.5772 -3.74392)
(-0.0211686 0.105216 0.160105)
(-0.0841346 0.133571 0.634036)
(-0.0848092 0.418158 0.205812)
(-0.181515 0.158512 1.36749)
(-0.338115 0.529989 0.815511)
(-0.186686 0.910865 0.251861)
(-0.320395 0.173044 2.42413)
(-0.729626 0.624694 1.75743)
(-0.746345 1.15186 0.997745)
(-0.341089 1.6436 0.289921)
(-0.506056 0.169668 3.85896)
(-1.28414 0.672911 3.10703)
(-1.60834 1.34529 2.14446)
(-1.36603 2.07136 1.14597)
(-0.564957 2.68394 0.306344)
(-0.744096 0.142386 5.71785)
(-2.01851 0.646878 4.92443)
(-2.81403 1.42388 3.76969)
(-2.93042 2.38879 2.44793)
(-2.26208 3.36452 1.20408)
(-0.877967 4.10187 0.281361)
(-1.04616 0.087226 8.04831)
(-2.95571 0.529796 7.2572)
(-4.38429 1.33466 5.92204)
(-5.07053 2.47031 4.25585)
(-4.80671 3.81252 2.54239)
(-3.50475 5.1004 1.09445)
(-1.30551 5.96465 0.189422)
(-1.44027 4.32977e-09 10.9222)
(-4.15505 0.316183 10.1591)
(-6.3616 1.06054 8.62512)
(-7.77707 2.24252 6.57719)
(-8.16465 3.82405 4.33829)
(-7.32882 5.64057 2.2686)
(-5.17885 7.32782 0.725338)
(-1.89098 8.3376 -6.36061e-09)
(-1.99263 -0.128727 14.4714)
(-5.76088 1.09358e-08 13.7182)
(-8.87771 0.613221 11.8924)
(-11.0849 1.71748 9.36707)
(-12.2189 3.33519 6.52935)
(-12.1155 5.43674 3.76573)
(-10.5758 7.83572 1.46525)
(-7.42281 10.063 -1.1014e-08)
(-2.73174 11.3019 -0.324812)
(-2.87272 -0.32162 18.9549)
(-8.0955 -0.445067 18.0815)
(-12.2305 1.34328e-08 15.7233)
(-15.1626 0.956576 12.5224)
(-16.9288 2.44446 8.97148)
(-17.533 4.51367 5.4595)
(-16.8654 7.17184 2.34529)
(-14.6631 10.2651 -1.07417e-08)
(-10.5148 13.2741 -1.18879)
(-4.07722 15.0061 -0.843804)
(-4.60401 -0.629664 24.9252)
(-11.8762 -1.09026 23.4453)
(-16.9712 -0.814139 20.0242)
(-20.3375 1.33442e-08 15.822)
(-22.4003 1.30419 11.4214)
(-23.4103 3.14347 7.14412)
(-23.4378 5.60897 3.24365)
(-22.364 8.78391 -9.32287e-09)
(-19.8173 12.6498 -2.23445)
(-15.0177 16.8296 -2.99957)
(-6.61462 19.7848 -1.67889)
(-9.21599 -1.17326 33.7541)
(-18.7004 -2.09048 29.8594)
(-23.9597 -1.93705 24.3376)
(-27.0113 -1.18391 18.7693)
(-28.7931 1.25062e-08 13.4828)
(-29.7449 1.59933 8.54146)
(-30.0516 3.68839 4.00445)
(-29.7356 6.39994 -8.06537e-09)
(-28.6593 9.91631 -3.24498)
(-26.4189 14.4792 -5.36389)
(-21.9703 20.3044 -5.7322)
(-12.3858 26.4489 -3.14467)
(-26.258 -2.2996 49.5136)
(-31.5071 -3.76042 35.947)
(-34.0258 -3.57012 27.132)
(-35.3579 -2.70767 20.3589)
(-36.103 -1.48915 14.5668)
(-36.5108 1.21503e-08 9.322)
(-36.6871 1.78498 4.46848)
(-36.6673 3.95744 -7.42923e-09)
(-36.4378 6.6644 -3.98443)
(-35.9251 10.1452 -7.28126)
(-34.9323 14.8997 -9.52027)
(-32.9057 22.3016 -9.9091)
(-28.0093 37.1196 -6.18015)
(-0.0156833 0.0783485 0.119158)
(-0.0621459 0.0996057 0.471614)
(-0.0625354 0.310967 0.152993)
(-0.133955 0.118823 1.01737)
(-0.248453 0.394726 0.605631)
(-0.136941 0.676092 0.187012)
(-0.236795 0.131055 1.80586)
(-0.535729 0.468371 1.30549)
(-0.545362 0.856619 0.740187)
(-0.24881 1.21717 0.215212)
(-0.375114 0.130501 2.88134)
(-0.944894 0.511249 2.31241)
(-1.17506 1.00935 1.59261)
(-0.992617 1.53824 0.8507)
(-0.409688 1.98247 0.227758)
(-0.552839 0.111666 4.28008)
(-1.49071 0.501229 3.67689)
(-2.06368 1.08695 2.80949)
(-2.1329 1.79547 1.82296)
(-1.63545 2.49599 0.897217)
(-0.632449 3.02108 0.210092)
(-0.776067 0.0698747 6.0335)
(-2.18778 0.420605 5.43856)
(-3.23333 1.04472 4.43887)
(-3.71688 1.89956 3.19151)
(-3.49346 2.8761 1.90798)
(-2.52226 3.78261 0.822261)
(-0.931876 4.37759 0.14252)
(-1.05795 -1.03115e-08 8.17722)
(-3.06569 0.257642 7.63356)
(-4.70958 0.855554 6.51035)
(-5.75632 1.78021 4.98493)
(-6.00994 2.97288 3.29757)
(-5.3329 4.28245 1.7269)
(-3.7064 5.43715 0.552158)
(-1.32863 6.08728 -1.08855e-08)
(-1.42725 -0.107075 10.7648)
(-4.19342 1.29298e-08 10.3092)
(-6.55966 0.510539 9.04359)
(-8.27273 1.41459 7.19827)
(-9.1408 2.69866 5.05534)
(-8.99967 4.29404 2.92699)
(-7.7171 6.00893 1.13907)
(-5.26173 7.47458 -1.82668e-08)
(-1.86204 8.17689 -0.249739)
(-1.94846 -0.270928 13.8873)
(-5.72095 -0.379997 13.539)
(-8.94197 1.78286e-08 12.0545)
(-11.3624 0.817913 9.79417)
(-12.8624 2.06731 7.11794)
(-13.3465 3.74604 4.36728)
(-12.6885 5.79161 1.88021)
(-10.725 7.99087 -1.68773e-08)
(-7.32462 9.8755 -0.939207)
(-2.62417 10.6766 -0.654803)
(-2.78521 -0.534384 17.7127)
(-7.96865 -0.948431 17.4294)
(-12.169 -0.717759 15.535)
(-15.2442 1.79411e-08 12.6824)
(-17.2513 1.15165 9.36101)
(-18.251 2.74713 5.93287)
(-18.2298 4.81076 2.70779)
(-17.0647 7.3148 -1.37513e-08)
(-14.5016 10.0751 -1.84114)
(-10.1753 12.567 -2.41954)
(-3.85144 13.6503 -1.30679)
(-4.44843 -0.997601 22.5949)
(-11.6469 -1.85205 22.0848)
(-16.7964 -1.75434 19.3574)
(-20.2686 -1.08415 15.6422)
(-22.4828 1.5973e-08 11.562)
(-23.7185 1.46638 7.44456)
(-24.108 3.35285 3.51588)
(-23.6463 5.72295 -1.11227e-08)
(-22.1768 8.61782 -2.82595)
(-19.3272 11.9704 -4.58616)
(-14.378 15.3589 -4.73245)
(-6.19507 17.2569 -2.42844)
(-8.94504 -1.95043 29.4308)
(-18.3595 -3.42554 27.3695)
(-23.7015 -3.34601 22.9914)
(-26.8532 -2.5717 18.1545)
(-28.7375 -1.42324 13.3305)
(-29.8071 1.39903e-08 8.64566)
(-30.2748 1.7069 4.16974)
(-30.2128 3.765 -8.89731e-09)
(-29.5829 6.27462 -3.70681)
(-28.2134 9.3597 -6.7031)
(-25.6885 13.1648 -8.5749)
(-21.0155 17.7334 -8.52019)
(-11.6191 21.8786 -4.71373)
(-25.9095 -4.76941 40.9261)
(-31.1949 -6.52771 31.5579)
(-33.8243 -5.9429 24.7932)
(-35.235 -4.70956 19.1733)
(-36.0358 -3.24555 14.0673)
(-36.4888 -1.67285 9.21351)
(-36.7105 1.29348e-08 4.5235)
(-36.7484 1.82265 -7.8165e-09)
(-36.6075 3.87737 -4.29611)
(-36.2533 6.27007 -8.25447)
(-35.5909 9.15328 -11.6986)
(-34.3955 12.8375 -14.3003)
(-32.0954 18.2031 -15.2156)
(-27.0952 28.4815 -11.167)
(-0.0116704 0.0583705 0.0887373)
(-0.0461139 0.0743357 0.351279)
(-0.046343 0.231581 0.113895)
(-0.0993106 0.0890626 0.758147)
(-0.183592 0.294392 0.450672)
(-0.101052 0.502916 0.139125)
(-0.175749 0.0990327 1.34742)
(-0.395596 0.351159 0.971839)
(-0.4012 0.638236 0.550339)
(-0.182783 0.903931 0.160043)
(-0.279149 0.0998267 2.15426)
(-0.698957 0.387277 1.72416)
(-0.864253 0.757139 1.18511)
(-0.726946 1.14482 0.632557)
(-0.29956 1.46938 0.16948)
(-0.412531 0.0867581 3.20753)
(-1.10643 0.385607 2.74896)
(-1.52224 0.826276 2.09619)
(-1.5634 1.34836 1.35837)
(-1.19255 1.85577 0.668448)
(-0.460037 2.23403 0.156692)
(-0.579438 0.0552287 4.52927)
(-1.6288 0.329933 4.07891)
(-2.39668 0.80995 3.32631)
(-2.73853 1.45152 2.38986)
(-2.55524 2.16477 1.42813)
(-1.83153 2.8104 0.615516)
(-0.673304 3.22785 0.106754)
(-0.786304 -9.33352e-09 6.13727)
(-2.28215 0.206437 5.73984)
(-3.50618 0.679583 4.905)
(-4.27432 1.39482 3.76153)
(-4.43567 2.28929 2.49024)
(-3.89877 3.23613 1.30409)
(-2.6783 4.0383 0.416661)
(-0.949809 4.47027 -1.91332e-08)
(-1.04616 -0.087226 8.04831)
(-3.10049 -3.0441e-08 7.75658)
(-4.88684 0.416218 6.8515)
(-6.18878 1.14213 5.48596)
(-6.8313 2.14506 3.86814)
(-6.67661 3.34372 2.24309)
(-5.64494 4.56925 0.872042)
(-3.77302 5.55011 -3.12677e-08)
(-1.30551 5.96465 -0.189422)
(-1.38552 -0.222623 10.2797)
(-4.15505 -0.316183 10.1591)
(-6.62149 2.12913e-08 9.17956)
(-8.53607 0.681451 7.55464)
(-9.73466 1.7045 5.54149)
(-10.0899 3.0352 3.41707)
(-9.48796 4.58067 1.47179)
(-7.84437 6.13234 -2.692e-08)
(-5.17885 7.32782 -0.725338)
(-1.77331 7.69521 -0.498697)
(-1.86204 -0.439822 12.8468)
(-5.59086 -0.799395 12.9828)
(-8.87771 -0.613221 11.8924)
(-11.4478 2.40284e-08 9.93217)
(-13.1951 0.98551 7.45239)
(-14.0658 2.32558 4.76989)
(-13.9939 3.99673 2.18435)
(-12.8746 5.9105 -1.98676e-08)
(-10.5758 7.83572 -1.46525)
(-7.02004 9.31167 -1.8898)
(-2.43181 9.62551 -0.99234)
(-2.62228 -0.813673 15.755)
(-7.7118 -1.57373 16.2507)
(-11.9654 -1.52776 14.9469)
(-15.1626 -0.956576 12.5224)
(-17.3492 2.13686e-08 9.4863)
(-18.6119 1.29574 6.1996)
(-18.9922 2.93205 2.94744)
(-18.4536 4.91037 -1.63239e-08)
(-16.8654 7.17184 -2.34529)
(-13.9946 9.5032 -3.73345)
(-9.55031 11.3704 -3.72594)
(-3.48056 11.6905 -1.81063)
(-4.12964 -1.54128 18.9744)
(-11.1945 -2.92277 19.8922)
(-16.4313 -2.97046 18.1396)
(-20.0376 -2.3318 15.0782)
(-22.4003 -1.30419 11.4214)
(-23.8108 1.77091e-08 7.54087)
(-24.4356 1.56557 3.66819)
(-24.329 3.42316 -1.21099e-08)
(-23.4378 5.60897 -3.24365)
(-21.582 8.11905 -5.7739)
(-18.4003 10.8221 -7.1676)
(-13.2741 13.2136 -6.73882)
(-5.45521 13.7453 -3.34083)
(-8.21564 -3.38327 22.275)
(-17.5954 -5.61205 23.3904)
(-23.1687 -5.4351 20.8005)
(-26.5154 -4.42072 17.0273)
(-28.5491 -3.08465 12.8522)
(-29.7449 -1.59933 8.54146)
(-30.341 1.48418e-08 4.2226)
(-30.4404 1.74305 -9.27026e-09)
(-30.0516 3.68839 -4.00445)
(-29.0918 5.89959 -7.62505)
(-27.3493 8.42664 -10.6075)
(-24.3743 11.2674 -12.4865)
(-19.2151 14.1499 -12.2163)
(-9.9182 15.2952 -7.0477)
(-24.4295 -13.8419 23.3165)
(-30.2992 -12.4894 24.1661)
(-33.356 -10.0609 21.0741)
(-34.9769 -7.7514 17.2539)
(-35.8908 -5.61577 13.1538)
(-36.4138 -3.63854 8.87296)
(-36.6871 -1.78498 4.46848)
(-36.7723 1.31492e-08 -8.01429e-09)
(-36.6871 1.78498 -4.46848)
(-36.4138 3.63854 -8.87296)
(-35.8908 5.61577 -13.1538)
(-34.9769 7.7514 -17.2539)
(-33.356 10.0609 -21.0741)
(-30.2992 12.4894 -24.1661)
(-24.4295 13.8419 -23.3165)
(-0.00872216 0.0434576 0.0660432)
(-0.0343589 0.0554766 0.261758)
(-0.0344909 0.172542 0.0848328)
(-0.0738959 0.0667297 0.565497)
(-0.136268 0.21972 0.335767)
(-0.0749202 0.374589 0.10362)
(-0.130865 0.0746942 1.00636)
(-0.293393 0.263238 0.724503)
(-0.296678 0.476122 0.409832)
(-0.135008 0.672624 0.119178)
(-0.208305 0.0760319 1.61196)
(-0.519054 0.292688 1.28719)
(-0.638868 0.567842 0.883194)
(-0.535549 0.853374 0.471008)
(-0.2204 1.09183 0.126231)
(-0.308649 0.0669081 2.40519)
(-0.824051 0.295016 2.05699)
(-1.12779 0.626148 1.56544)
(-1.15227 1.01206 1.01298)
(-0.875343 1.3822 0.498201)
(-0.337045 1.65705 0.116838)
(-0.43416 0.0431871 3.40219)
(-1.21693 0.25638 3.06052)
(-1.78296 0.623363 2.4926)
(-2.0261 1.10417 1.78857)
(-1.87901 1.62723 1.06774)
(-1.3394 2.09162 0.459961)
(-0.490734 2.38873 0.0797858)
(-0.588044 1.02319e-09 4.61162)
(-1.70734 0.163195 4.31688)
(-2.61952 0.533295 3.69125)
(-3.18214 1.08213 2.83107)
(-3.28292 1.75111 1.87346)
(-2.86313 2.43862 0.980234)
(-1.95032 3.00337 0.312828)
(-0.686969 3.29751 -3.43993e-08)
(-0.776067 -0.0698747 6.0335)
(-2.31237 -2.79626e-08 5.83891)
(-3.65843 0.333629 5.1784)
(-4.63772 0.907814 4.15932)
(-5.10513 1.68233 2.93771)
(-4.95449 2.57796 1.70358)
(-4.14235 3.45672 0.661182)
(-2.73025 4.1243 -5.54669e-08)
(-0.931876 4.37759 -0.14252)
(-1.00888 -0.179403 7.65375)
(-3.06569 -0.257642 7.63356)
(-4.94295 -4.94712e-08 6.96307)
(-6.42483 0.555898 5.777)
(-7.35065 1.37738 4.26136)
(-7.59669 2.41516 2.63437)
(-7.07318 3.57073 1.13376)
(-5.74821 4.66561 -4.53016e-08)
(-3.7064 5.43715 -0.552158)
(-1.23545 5.59872 -0.3757)
(-1.30652 -0.35395 9.42934)
(-4.03201 -0.657181 9.69677)
(-6.55966 -0.510539 9.04359)
(-8.61837 2.95462e-08 7.67057)
(-10.051 0.821692 5.82116)
(-10.7554 1.91911 3.75049)
(-10.6469 3.24119 1.72025)
(-9.6484 4.67693 -2.29973e-08)
(-7.7171 6.00893 -1.13907)
(-4.92535 6.88869 -1.4468)
(-1.61947 6.89518 -0.744041)
(-1.71044 -0.646368 11.2516)
(-5.33674 -1.29656 11.9938)
(-8.66862 -1.28896 11.3898)
(-11.3624 -0.817913 9.79417)
(-13.2976 2.86591e-08 7.56063)
(-14.4388 1.10956 4.99935)
(-14.759 2.48372 2.38857)
(-14.2047 4.08095 -2.3431e-08)
(-12.6885 5.79161 -1.88021)
(-10.1148 7.37093 -2.94116)
(-6.47923 8.36923 -2.8546)
(-2.1351 8.14217 -1.33306)
(-2.32187 -1.1808 12.8493)
(-7.23588 -2.39033 14.4015)
(-11.555 -2.52918 13.8884)
(-14.893 -2.03322 12.0238)
(-17.2513 -1.15165 9.36101)
(-18.7217 2.30266e-08 6.28555)
(-19.3764 1.384 3.08283)
(-19.2307 2.99421 -1.7483e-08)
(-18.2298 4.81076 -2.70779)
(-16.2427 6.74385 -4.74028)
(-13.072 8.54615 -5.71336)
(-8.5433 9.66398 -5.11758)
(-2.89948 9.08596 -2.34495)
(-3.43313 -2.33181 13.4554)
(-10.2812 -4.47991 16.5268)
(-15.7188 -4.65924 16.1981)
(-19.5583 -3.9334 14.055)
(-22.1245 -2.79997 10.9818)
(-23.7185 -1.46638 7.44456)
(-24.5339 1.85856e-08 3.71709)
(-24.6631 1.59894 -1.2242e-08)
(-24.108 3.35285 -3.51588)
(-22.7781 5.26842 -6.60534)
(-20.471 7.28756 -8.95534)
(-16.8403 9.18833 -10.0655)
(-11.4208 10.3276 -9.0512)
(-4.13638 9.09295 -4.39001)
(-5.72946 -6.00417 10.0553)
(-15.6582 -9.38146 17.0481)
(-22.0082 -8.75021 17.3912)
(-25.8293 -7.115 15.2211)
(-28.1497 -5.2785 11.9821)
(-29.5347 -3.46002 8.2151)
(-30.2748 -1.7069 4.16974)
(-30.5079 1.50629e-08 -9.40445e-09)
(-30.2748 1.7069 -4.16974)
(-29.5347 3.46002 -8.2151)
(-28.1497 5.2785 -11.9821)
(-25.8293 7.115 -15.2211)
(-22.0082 8.75021 -17.3912)
(-15.6582 9.38146 -17.0481)
(-5.72946 6.00417 -10.0553)
(-27.0952 -28.4815 11.167)
(-32.0954 -18.2031 15.2156)
(-34.3955 -12.8375 14.3003)
(-35.5909 -9.15328 11.6986)
(-36.2533 -6.27007 8.25447)
(-36.6075 -3.87737 4.29611)
(-36.7484 -1.82265 -8.04822e-09)
(-36.7105 1.27822e-08 -4.5235)
(-36.4888 1.67285 -9.21351)
(-36.0358 3.24555 -14.0673)
(-35.235 4.70956 -19.1733)
(-33.8243 5.9429 -24.7932)
(-31.1949 6.52771 -31.5579)
(-25.9095 4.76941 -40.9261)
(-0.00655264 0.0322769 0.0490376)
(-0.0257009 0.0413593 0.19491)
(-0.0257802 0.128464 0.0631443)
(-0.055175 0.0499549 0.421852)
(-0.101541 0.163989 0.250241)
(-0.0557777 0.27912 0.0772053)
(-0.0977055 0.0562389 0.751953)
(-0.21837 0.197244 0.540535)
(-0.220304 0.355412 0.305482)
(-0.100156 0.501097 0.0888185)
(-0.155763 0.0577055 1.20664)
(-0.386628 0.220777 0.961737)
(-0.47414 0.425758 0.658881)
(-0.396386 0.636812 0.351085)
(-0.162949 0.812727 0.0940931)
(-0.231315 0.0512938 1.80392)
(-0.615234 0.22472 1.53999)
(-0.838336 0.473336 1.1699)
(-0.852911 0.759333 0.755967)
(-0.645814 1.03083 0.371524)
(-0.248299 1.23186 0.0871385)
(-0.325933 0.0334821 2.55598)
(-0.911198 0.197744 2.29674)
(-1.32984 0.477049 1.86794)
(-1.50397 0.837133 1.33838)
(-1.38779 1.22214 0.797986)
(-0.984995 1.55888 0.343492)
(-0.360008 1.77265 0.0595741)
(-0.441219 -2.85298e-09 3.46681)
(-1.28082 0.12763 3.24649)
(-1.96141 0.41453 2.77568)
(-2.3739 0.833263 2.12754)
(-2.43607 1.33301 1.40643)
(-2.11105 1.83455 0.73493)
(-1.42897 2.23672 0.234235)
(-0.501041 2.44091 -8.60342e-08)
(-0.579438 -0.0552287 4.52927)
(-1.73276 -2.71587e-09 4.39554)
(-2.74633 0.263827 3.9074)
(-3.47933 0.712757 3.14299)
(-3.81673 1.30612 2.22059)
(-3.68044 1.97361 1.28659)
(-3.04988 2.60688 0.498357)
(-1.99007 3.06839 -9.27247e-08)
(-0.673304 3.22785 -0.106754)
(-0.744096 -0.142386 5.71785)
(-2.28215 -0.206437 5.73984)
(-3.70721 -4.99545e-08 5.26835)
(-4.84072 0.445816 4.39292)
(-5.54233 1.09554 3.25056)
(-5.70611 1.89573 2.01122)
(-5.26691 2.75516 0.86423)
(-4.22352 3.53099 -1.01774e-07)
(-2.6783 4.0383 -0.416661)
(-0.877967 4.10187 -0.281361)
(-0.940315 -0.280164 6.97182)
(-2.95571 -0.529796 7.2572)
(-4.88684 -0.416218 6.8515)
(-6.49962 -6.55959e-08 5.87227)
(-7.63461 0.670724 4.49018)
(-8.17976 1.55193 2.90466)
(-8.05308 2.5809 1.33257)
(-7.20463 3.64712 6.67938e-09)
(-5.64494 4.56925 -0.872042)
(-3.50475 5.1004 -1.09445)
(-1.11663 4.9961 -0.554503)
(-1.1749 -0.504821 8.1574)
(-3.79939 -1.04424 8.88723)
(-6.3616 -1.06054 8.62512)
(-8.53607 -0.681451 7.55464)
(-10.1499 3.82844e-08 5.91224)
(-11.1105 0.925705 3.94272)
(-11.3557 2.0508 1.88967)
(-10.8302 3.3105 -2.59608e-08)
(-9.48796 4.58067 -1.47179)
(-7.32882 5.64057 -2.2686)
(-4.48762 6.1618 -2.15459)
(-1.39279 5.78557 -0.978656)
(-1.45461 -0.892351 8.97782)
(-4.89237 -1.90254 10.4821)
(-8.26138 -2.08733 10.4988)
(-11.0849 -1.71748 9.36707)
(-13.1951 -0.98551 7.45239)
(-14.5539 2.82832e-08 5.07372)
(-15.1564 1.18568 2.5052)
(-14.9851 2.53695 -2.54982e-08)
(-13.9939 3.99673 -2.18435)
(-12.1155 5.43674 -3.76573)
(-9.30272 6.59984 -4.42512)
(-5.65442 7.05014 -3.81666)
(-1.70877 6.23284 -1.66)
(-1.76625 -1.62652 8.72003)
(-6.36596 -3.45387 11.6782)
(-10.8004 -3.82607 12.2404)
(-14.3522 -3.35679 11.131)
(-16.9288 -2.44446 8.97148)
(-18.6119 -1.29574 6.1996)
(-19.4933 2.32699e-08 3.12651)
(-19.6227 1.41371 -1.68166e-08)
(-18.9922 2.93205 -2.94744)
(-17.533 4.51367 -5.4595)
(-15.1201 6.0347 -7.21544)
(-11.6112 7.2043 -7.77848)
(-7.01073 7.4387 -6.54764)
(-2.01979 5.83202 -2.85588)
(-1.81213 -3.27059 5.31122)
(-8.34744 -6.66959 11.5095)
(-14.3087 -7.06386 13.274)
(-18.6341 -6.1283 12.4434)
(-21.5558 -4.70626 10.1893)
(-23.4103 -3.14347 7.14412)
(-24.4356 -1.56557 3.66819)
(-24.7634 1.87904e-08 -1.2134e-08)
(-24.4356 1.56557 -3.66819)
(-23.4103 3.14347 -7.14412)
(-21.5558 4.70626 -10.1893)
(-18.6341 6.1283 -12.4434)
(-14.3087 7.06386 -13.274)
(-8.34744 6.66959 -11.5095)
(-1.81213 3.27059 -5.31122)
(-9.9182 -15.2952 7.0477)
(-19.2151 -14.1499 12.2163)
(-24.3743 -11.2674 12.4865)
(-27.3493 -8.42664 10.6075)
(-29.0918 -5.89959 7.62505)
(-30.0516 -3.68839 4.00445)
(-30.4404 -1.74305 -9.61224e-09)
(-30.341 1.46165e-08 -4.2226)
(-29.7449 1.59933 -8.54146)
(-28.5491 3.08465 -12.8522)
(-26.5154 4.42072 -17.0273)
(-23.1687 5.4351 -20.8005)
(-17.5954 5.61205 -23.3904)
(-8.21564 3.38327 -22.275)
(-28.0093 -37.1196 6.18015)
(-32.9057 -22.3016 9.9091)
(-34.9323 -14.8997 9.52027)
(-35.9251 -10.1452 7.28126)
(-36.4378 -6.6644 3.98443)
(-36.6673 -3.95744 -7.63213e-09)
(-36.6871 -1.78498 -4.46848)
(-36.5108 1.18687e-08 -9.322)
(-36.103 1.48915 -14.5668)
(-35.3579 2.70767 -20.3589)
(-34.0258 3.57012 -27.132)
(-31.5071 3.76042 -35.947)
(-26.258 2.2996 -49.5136)
(-0.0049591 0.0238451 0.0362179)
(-0.0193211 0.0307529 0.144779)
(-0.0193691 0.0954159 0.0468887)
(-0.0413385 0.0373345 0.314395)
(-0.0759646 0.122261 0.186355)
(-0.0416987 0.207832 0.057478)
(-0.0731362 0.0422634 0.561717)
(-0.16306 0.147667 0.403295)
(-0.16421 0.265287 0.227742)
(-0.0745926 0.37344 0.0662017)
(-0.11668 0.043663 0.903186)
(-0.288727 0.166238 0.718776)
(-0.353052 0.319064 0.4918)
(-0.294518 0.475456 0.26185)
(-0.12096 0.605608 0.070169)
(-0.173566 0.0391342 1.35285)
(-0.4602 0.170567 1.15316)
(-0.624853 0.357101 0.874681)
(-0.633535 0.569484 0.564472)
(-0.478446 0.769485 0.2772)
(-0.183728 0.917233 0.0650091)
(-0.244944 0.0257785 1.91994)
(-0.683221 0.15161 1.72346)
(-0.993778 0.36345 1.3998)
(-1.11936 0.633033 1.00151)
(-1.02865 0.917339 0.596365)
(-0.727611 1.1631 0.256482)
(-0.265442 1.31821 0.0444699)
(-0.331615 -4.01581e-10 2.60622)
(-0.962264 0.0989586 2.44084)
(-1.47066 0.319792 2.08592)
(-1.77378 0.63791 1.59733)
(-1.8118 1.01112 1.05456)
(-1.56192 1.37859 0.550278)
(-1.05218 1.66775 0.175154)
(-0.367738 1.81169 7.54799e-08)
(-0.43416 -0.0431871 3.40219)
(-1.30167 -4.23916e-09 3.30823)
(-2.06462 0.206381 2.94471)
(-2.61212 0.554232 2.36977)
(-2.8552 1.00626 1.67356)
(-2.73779 1.50329 0.968371)
(-2.25268 1.96217 0.374336)
(-1.45905 2.28567 -2.37551e-07)
(-0.490734 2.38873 -0.079786)
(-0.552839 -0.111666 4.28008)
(-1.70734 -0.163195 4.31688)
(-2.78738 -5.91999e-08 3.97887)
(-3.64857 0.352681 3.32788)
(-4.17477 0.860596 2.46629)
(-4.28078 1.4727 1.52572)
(-3.92186 2.11048 0.654346)
(-3.11241 2.66362 -1.12048e-07)
(-1.95032 3.00337 -0.312828)
(-0.632449 3.02108 -0.210092)
(-0.686714 -0.219039 5.17893)
(-2.18778 -0.420605 5.43856)
(-3.65843 -0.333629 5.1784)
(-4.90579 -6.92711e-08 4.46981)
(-5.78683 0.538181 3.43449)
(-6.19771 1.23509 2.22665)
(-6.06861 2.02693 1.02081)
(-5.37113 2.81489 -2.64057e-07)
(-4.14235 3.45672 -0.661183)
(-2.52226 3.78261 -0.822261)
(-0.787954 3.65051 -0.41225)
(-0.830908 -0.389879 5.97313)
(-2.75361 -0.827038 6.60723)
(-4.70958 -0.855554 6.51035)
(-6.42483 -0.555898 5.777)
(-7.72464 -7.85016e-08 4.56515)
(-8.49902 0.756033 3.06218)
(-8.67498 1.65922 1.47012)
(-8.20456 2.63675 2.54231e-08)
(-7.07318 3.57073 -1.13376)
(-5.3329 4.28245 -1.7269)
(-3.16363 4.54697 -1.61364)
(-0.9471 4.17033 -0.719234)
(-0.968156 -0.670486 6.40454)